 Gaussian 09, Revision D.01,
 Gaussian 09:  AM64L-G09RevD.01 24-Apr-2013

 ----------------------
 # g4 geom=connectivity
 ----------------------

 -------------------
 Title Card Required
 -------------------
 Symbolic Z-matrix:
 Charge = -1 Multiplicity = 1

 SCF Done:  E(RB3LYP) =  -961.570452405     A.U. after   13 cycles
 SCF Done:  E(RB3LYP) =  -961.571461286     A.U. after   11 cycles
 SCF Done:  E(RB3LYP) =  -961.571528763     A.U. after    9 cycles
 SCF Done:  E(RB3LYP) =  -961.571559566     A.U. after    8 cycles
 SCF Done:  E(RB3LYP) =  -961.571564595     A.U. after    8 cycles
 Optimization completed.
    -- Stationary point found.
 Normal termination of Gaussian 09 at Thu Jun 22 18:15:19 2017.

 ----------------------------------------------------------
 #N Geom=AllCheck Guess=TCheck SCRF=Check B3LYP/GTBas3 Freq
 ----------------------------------------------------------

 Structure from the checkpoint file:  "CF3SO3H-Ag4.chk"
 -------------------
 Title Card Required
 -------------------
 Charge = -1 Multiplicity = 1

 SCF Done:  E(RB3LYP) =  -961.571564595     A.U. after    1 cycles

  Exact polarizability:  42.339   0.002  39.428   0.000  -0.001  39.425
 Approx polarizability:  57.716  -0.002  66.101  -0.004   0.000  66.092

                      1                      2                      3
                      A                      A                      A
 Frequencies --     55.6222               189.1446               190.3570
 Red. masses --     17.4358                17.2446                17.2428
 Frc consts  --      0.0318                 0.3635                 0.3681
 IR Inten    --      0.0000                 0.9709                 0.9633

                      4                      5                      6
                      A                      A                      A
 Frequencies --    290.6022               335.1022               335.5723
 Red. masses --     18.1079                17.5923                17.5925
 Frc consts  --      0.9010                 1.1639                 1.1672
 IR Inten    --      0.0027                 0.0964                 0.1008

                      7                      8                      9
                      A                      A                      A
 Frequencies --    510.1867               511.0586               565.4912
 Red. masses --     17.7672                17.7645                18.1115
 Frc consts  --      2.7248                 2.7337                 3.4124
 IR Inten    --     12.2676                12.3654                 7.0535

                     10                     11                     12
                      A                      A                      A
 Frequencies --    566.3224               635.7402               746.3786
 Red. masses --     18.1122                20.9666                18.5731
 Frc consts  --      3.4225                 4.9927                 6.0961
 IR Inten    --      6.9563               153.1892                 7.1948

                     13                     14                     15
                      A                      A                      A
 Frequencies --   1029.0469              1163.2003              1163.6607
 Red. masses --     16.2021                13.2128                13.2118
 Frc consts  --     10.1086                10.5330                10.5406
 IR Inten    --    145.9990               155.6797               155.4908

                     16                     17                     18
                      A                      A                      A
 Frequencies --   1220.0829              1294.3783              1294.5822
 Red. masses --     13.7490                20.4719                20.4723
 Frc consts  --     12.0587                20.2083                20.2151
 IR Inten    --     70.2305               300.6691               300.9270

 - Thermochemistry -
 -------------------
 Temperature   298.150 Kelvin.  Pressure   1.00000 Atm.
 Atom     1 has atomic number 16 and mass  31.97207

 Molecular mass:   148.95203 amu.
 Principal axes and moments of inertia in atomic units:
                           1         2         3
     Eigenvalues --   664.801471149.704881149.74858
           X            1.00000   0.00000   0.00000
           Y            0.00000   0.99997  -0.00710
           Z            0.00000   0.00710   0.99997
 This molecule is an asymmetric top.
 Rotational symmetry number  1.
 Warning -- assumption of classical behavior for rotation
           may cause significant error
 Rotational temperatures (Kelvin)      0.13029     0.07534     0.07533
 Rotational constants (GHZ):           2.71471     1.56974     1.56968
 Zero-point vibrational energy      72353.3 (Joules/Mol)
                                   17.29286 (Kcal/Mol)
 Warning -- explicit consideration of  10 degrees of freedom as
           vibrations may cause significant error
 Vibrational temperatures:     80.03   272.14   273.88   418.11   482.14
          (Kelvin)            482.81   734.04   735.30   813.61   814.81
                              914.69  1073.87  1480.57  1673.58  1674.25
                             1755.42  1862.32  1862.61

 Zero-point correction=                           0.027558 (Hartree/Particle)
 Thermal correction to Energy=                    0.034694
 Thermal correction to Enthalpy=                  0.035638
 Thermal correction to Gibbs Free Energy=        -0.004932
 Sum of electronic and zero-point Energies=           -961.544007
 Sum of electronic and thermal Energies=              -961.536870
 Sum of electronic and thermal Enthalpies=            -961.535926
 Sum of electronic and thermal Free Energies=         -961.576496

                     E (Thermal)             CV                S
                      KCal/Mol        Cal/Mol-Kelvin    Cal/Mol-Kelvin
 Total                   21.771             24.209             85.387
 Electronic               0.000              0.000              0.000
 Translational            0.889              2.981             40.906
 Rotational               0.889              2.981             28.265
 Vibrational             19.993             18.248             16.216
 Vibration     1          0.596              1.975              4.607
 Vibration     2          0.633              1.855              2.236
 Vibration     3          0.634              1.853              2.224
 Vibration     4          0.687              1.691              1.470
 Vibration     5          0.716              1.605              1.235
 Vibration     6          0.717              1.604              1.233
 Vibration     7          0.865              1.227              0.633
 Vibration     8          0.866              1.225              0.631
 Vibration     9          0.921              1.106              0.513
 Vibration    10          0.922              1.104              0.511

 Optimization completed.
    -- Stationary point found.
 Normal termination of Gaussian 09 at Thu Jun 22 18:38:58 2017.

 -----------------------------------------------------------------
 #N Geom=AllCheck Guess=TCheck SCRF=Check CCSD(T,E4T,FrzG4)/GTBas1
 -----------------------------------------------------------------

 Structure from the checkpoint file:  "CF3SO3H-Ag4.chk"
 -------------------
 Title Card Required
 -------------------
 Charge = -1 Multiplicity = 1

 SCF Done:  E(RHF) =  -958.273995560     A.U. after   12 cycles
 E2 =    -0.1320095943D+01 EUMP2 =    -0.95959409150255D+03
 CCSD(T)= -0.95963490694D+03
 1391\CCSD(T)=-959.6349069\RMSD=3.834e-09\PG=C01 [X(C1F3O3S1)]\\@
 Normal termination of Gaussian 09 at Thu Jun 22 19:46:49 2017.

 ---------------------------------------------------------
 #N Geom=AllCheck Guess=TCheck SCRF=Check MP4=FrzG4/GTBas2
 ---------------------------------------------------------

 Structure from the checkpoint file:  "CF3SO3H-Ag4.chk"
 -------------------
 Title Card Required
 -------------------
 Charge = -1 Multiplicity = 1

 SCF Done:  E(RHF) =  -958.301936515     A.U. after   11 cycles
 E2 =    -0.1355072893D+01 EUMP2 =    -0.95965700940799D+03
 Normal termination of Gaussian 09 at Thu Jun 22 21:04:27 2017.

 ---------------------------------------------------------
 #N Geom=AllCheck Guess=TCheck SCRF=Check MP4=FrzG4/GTBas3
 ---------------------------------------------------------

 Structure from the checkpoint file:  "CF3SO3H-Ag4.chk"
 -------------------
 Title Card Required
 -------------------
 Charge = -1 Multiplicity = 1

 SCF Done:  E(RHF) =  -958.350821160     A.U. after   11 cycles
 E2 =    -0.1668149865D+01 EUMP2 =    -0.96001897102475D+03
 Normal termination of Gaussian 09 at Fri Jun 23 04:52:18 2017.

 -----------------------------------------------------------
 #N Geom=AllCheck Guess=TCheck SCRF=Check MP2=Full/GTLargeXP
 -----------------------------------------------------------

 Structure from the checkpoint file:  "CF3SO3H-Ag4.chk"
 -------------------
 Title Card Required
 -------------------
 Charge = -1 Multiplicity = 1

 SCF Done:  E(RHF) =  -958.583520985     A.U. after   11 cycles
 E2 =    -0.2462207135D+01 EUMP2 =    -0.96104572811938D+03
 Normal termination of Gaussian 09 at Fri Jun 23 05:38:50 2017.
 SCF Done:  E(RHF) =  -958.631651282     A.U. after    9 cycles
 Normal termination of Gaussian 09 at Fri Jun 23 06:44:34 2017.

                         Standard orientation:
 ---------------------------------------------------------------------
 Center     Atomic      Atomic             Coordinates (Angstroms)
 Number     Number       Type             X           Y           Z
 ---------------------------------------------------------------------
      1         16           0       -0.924964   -0.000045   -0.000034
      2          8           0       -1.235445    0.515842   -1.327411
      3          8           0       -1.235760    0.891619    1.110304
      4          8           0       -1.235353   -1.407565    0.216922
      5          6           0        0.938281    0.000049   -0.000002
      6          9           0        1.437854    1.234098   -0.189774
      7          9           0        1.437998   -0.781442   -0.973668
      8          9           0        1.437726   -0.452516    1.163668
 ---------------------------------------------------------------------

 SCF Done:  E(RHF) =  -958.654850208     A.U. after    9 cycles

 The electronic state is 1-A.
 Alpha  occ. eigenvalues --  -92.01506 -26.19625 -26.19625 -26.19622 -20.37039
 Alpha  occ. eigenvalues --  -20.37038 -20.37035 -11.36108  -8.97766  -6.66486
 Alpha  occ. eigenvalues --   -6.66324  -6.66324  -1.58675  -1.49223  -1.49223
 Alpha  occ. eigenvalues --   -1.30562  -1.15916  -1.15915  -0.84736  -0.72299
 Alpha  occ. eigenvalues --   -0.67985  -0.67984  -0.60677  -0.57111  -0.57110
 Alpha  occ. eigenvalues --   -0.52503  -0.52503  -0.51033  -0.50336  -0.48587
 Alpha  occ. eigenvalues --   -0.48586  -0.36158  -0.36157  -0.32004  -0.32003
 Alpha  occ. eigenvalues --   -0.29768  -0.27182
 Alpha virt. eigenvalues --    0.13798   0.15693   0.15693   0.17048   0.18690
 Alpha virt. eigenvalues --    0.18691   0.19915   0.23691   0.23691   0.25397
 Alpha virt. eigenvalues --    0.27052   0.27053   0.30154   0.30154   0.30163

 Mulliken charges:
               1
     1  S    1.085643
     2  O   -0.639359
     3  O   -0.639336
     4  O   -0.639345
     5  C    0.746015
     6  F   -0.304540
     7  F   -0.304539
     8  F   -0.304540
 Sum of Mulliken charges =  -1.00000

 Dipole moment (field-independent basis, Debye):
    X=              4.1114    Y=              0.0000    Z=              0.0002  Tot=              4.1114
 Quadrupole moment (field-independent basis, Debye-Ang):
   XX=            -61.1731   YY=            -59.9774   ZZ=            -59.9764
   XY=              0.0010   XZ=              0.0002   YZ=              0.0002

 Normal termination of Gaussian 09 at Fri Jun 23 15:18:38 2017.
