 Gaussian 09, Revision D.01,
 Gaussian 09:  AM64L-G09RevD.01 24-Apr-2013

 ----------------------
 # g4 geom=connectivity
 ----------------------

 -------------------
 Title Card Required
 -------------------
 Symbolic Z-matrix:
 Charge =  0 Multiplicity = 1

 SCF Done:  E(RB3LYP) =  -962.080901329     A.U. after   14 cycles
 SCF Done:  E(RB3LYP) =  -962.081735712     A.U. after   11 cycles
 SCF Done:  E(RB3LYP) =  -962.081837010     A.U. after    9 cycles
 SCF Done:  E(RB3LYP) =  -962.081847149     A.U. after   10 cycles
 SCF Done:  E(RB3LYP) =  -962.081848419     A.U. after    8 cycles
 Optimization completed.
    -- Stationary point found.

 1\1\GINC-BLADI2\FOpt\RB3LYP\GTBas3\C1H1F3O3S1\SARARIOP\22-Jun-2017\0\\
 # g4 geom=connectivity\\Title Card Required\\0,1\S,-0.7860955852,0.570
 6344784,-0.0001737398\O,-1.1481163531,-0.6291027095,-0.679917032\O,-1.
 1783733678,1.7930361737,-0.9566464646\H,-1.3521671569,2.5722337271,-0.
 4065923111\O,-1.1800284634,0.8823290972,1.3422496152\C,1.0698149314,0.
 7169265762,-0.0789265877\F,1.4821126091,0.5570688265,-1.3244441696\F,1
 .5978352235,-0.2169855597,0.6951609137\F,1.4278643024,1.9185683301,0.3
 60266776\\Version=AM64L-G09RevD.01\State=1-A\HF=-962.0818484\RMSD=4.84

 Normal termination of Gaussian 09 at Thu Jun 22 20:22:14 2017.

 ----------------------------------------------------------
 #N Geom=AllCheck Guess=TCheck SCRF=Check B3LYP/GTBas3 Freq
 ----------------------------------------------------------

 Structure from the checkpoint file:  "CF3SO3Hg4.chk"
 -------------------
 Title Card Required
 -------------------
 Charge =  0 Multiplicity = 1

 SCF Done:  E(RB3LYP) =  -962.081848419     A.U. after    1 cycles

  Exact polarizability:  41.628  -0.607  40.830  -0.242   0.939  38.622
 Approx polarizability:  56.795   0.055  66.263  -0.808   4.793  66.490

                      1                      2                      3
                      A                      A                      A
 Frequencies --     48.9324               175.7715               181.4029
 Red. masses --     13.3489                 6.7788                16.0940
 Frc consts  --      0.0188                 0.1234                 0.3120
 IR Inten    --      1.3025                 8.7494                 2.8380

                      4                      5                      6
                      A                      A                      A
 Frequencies --    289.9818               290.9991               325.7729
 Red. masses --     14.6137                 2.1523                12.7039
 Frc consts  --      0.7240                 0.1074                 0.7944
 IR Inten    --      6.5384                36.9136                 2.3877

                      7                      8                      9
                      A                      A                      A
 Frequencies --    349.8218               446.8341               484.2742
 Red. masses --      2.8338                 4.3572                14.1540
 Frc consts  --      0.2043                 0.5126                 1.9557
 IR Inten    --     31.4450                23.8082                19.8244

                     10                     11                     12
                      A                      A                      A
 Frequencies --    557.1459               560.2805               605.5079
 Red. masses --     17.0110                16.1250                19.7566
 Frc consts  --      3.1111                 2.9824                 4.2678
 IR Inten    --      0.4146                 0.7369               124.4785

                     13                     14                     15
                      A                      A                      A
 Frequencies --    764.8113               836.5540              1137.3738
 Red. masses --     17.1513                18.8201                 1.3000
 Frc consts  --      5.9109                 7.7600                 0.9908
 IR Inten    --     20.4036               181.8048                71.1703

                     16                     17                     18
                      A                      A                      A
 Frequencies --   1144.0081              1235.6790              1251.5383
 Red. masses --      7.4794                14.2164                13.9600
 Frc consts  --      5.7673                12.7895                12.8832
 IR Inten    --    247.5545                53.7134               160.4364

                     19                     20                     21
                      A                      A                      A
 Frequencies --   1261.0948              1451.7087              3766.0238
 Red. masses --     13.1164                13.3987                 1.0655
 Frc consts  --     12.2902                16.6369                 8.9040
 IR Inten    --    240.8897               218.3276               131.6218

 - Thermochemistry -
 -------------------
 Temperature   298.150 Kelvin.  Pressure   1.00000 Atm.
 Atom     1 has atomic number 16 and mass  31.97207

 Molecular mass:   149.95985 amu.
 Principal axes and moments of inertia in atomic units:
                           1         2         3
     Eigenvalues --   684.657731153.983001160.75315
           X            0.99979  -0.01726   0.01141
           Y            0.02035   0.92006  -0.39125
           Z           -0.00374   0.39140   0.92021
 This molecule is an asymmetric top.
 Rotational symmetry number  1.
 Warning -- assumption of classical behavior for rotation
           may cause significant error
 Rotational temperatures (Kelvin)      0.12651     0.07506     0.07462
 Rotational constants (GHZ):           2.63598     1.56392     1.55480
 Zero-point vibrational energy     102672.6 (Joules/Mol)
                                   24.53934 (Kcal/Mol)
 Warning -- explicit consideration of  12 degrees of freedom as
           vibrations may cause significant error
 Vibrational temperatures:     70.40   252.90   261.00   417.22   418.68
          (Kelvin)            468.71   503.31   642.89   696.76   801.61
                              806.12   871.19  1100.39  1203.61  1636.43
                             1645.97  1777.86  1800.68  1814.43  2088.68
                             5418.46

 Zero-point correction=                           0.039106 (Hartree/Particle)
 Thermal correction to Energy=                    0.046856
 Thermal correction to Enthalpy=                  0.047800
 Thermal correction to Gibbs Free Energy=         0.006080
 Sum of electronic and zero-point Energies=           -962.042742
 Sum of electronic and thermal Energies=              -962.034993
 Sum of electronic and thermal Enthalpies=            -962.034049
 Sum of electronic and thermal Free Energies=         -962.075768

                     E (Thermal)             CV                S
                      KCal/Mol        Cal/Mol-Kelvin    Cal/Mol-Kelvin
 Total                   29.402             26.583             87.806
 Electronic               0.000              0.000              0.000
 Translational            0.889              2.981             40.926
 Rotational               0.889              2.981             28.308
 Vibrational             27.625             20.622             18.573
 Vibration     1          0.595              1.978              4.860
 Vibration     2          0.628              1.872              2.373
 Vibration     3          0.630              1.865              2.314
 Vibration     4          0.686              1.692              1.474
 Vibration     5          0.687              1.690              1.468
 Vibration     6          0.710              1.624              1.281
 Vibration     7          0.727              1.576              1.167
 Vibration     8          0.806              1.368              0.805
 Vibration     9          0.840              1.285              0.699
 Vibration    10          0.913              1.124              0.530
 Vibration    11          0.916              1.117              0.523
 Vibration    12          0.964              1.020              0.440

 1\1\GINC-BLADI2\Freq\RB3LYP\GTBas3\C1H1F3O3S1\SARARIOP\22-Jun-2017\0\\
 #N Geom=AllCheck Guess=TCheck SCRF=Check B3LYP/GTBas3 Freq\\Title Card
  Required\\0,1\S,-0.7860955852,0.5706344784,-0.0001737398\O,-1.1481163
 531,-0.6291027095,-0.679917032\O,-1.1783733678,1.7930361737,-0.9566464
 646\H,-1.3521671569,2.5722337271,-0.4065923111\O,-1.1800284634,0.88232
 90972,1.3422496152\C,1.0698149314,0.7169265762,-0.0789265877\F,1.48211
 26091,0.5570688265,-1.3244441696\F,1.5978352235,-0.2169855597,0.695160
 9137\F,1.4278643024,1.9185683301,0.360266776\\Version=AM64L-G09RevD.01

 Normal termination of Gaussian 09 at Thu Jun 22 20:49:05 2017.

 -----------------------------------------------------------------
 #N Geom=AllCheck Guess=TCheck SCRF=Check CCSD(T,E4T,FrzG4)/GTBas1
 -----------------------------------------------------------------

 Structure from the checkpoint file:  "CF3SO3Hg4.chk"
 -------------------
 Title Card Required
 -------------------
 Charge =  0 Multiplicity = 1

 SCF Done:  E(RHF) =  -958.765200876     A.U. after   13 cycles
 E2 =    -0.1321186119D+01 EUMP2 =    -0.96008638699449D+03
 CCSD(T)= -0.96013050954D+03

 1\1\GINC-BLADI2\SP\RCCSD(T)\GTBas1\C1H1F3O3S1\SARARIOP\22-Jun-2017\0\\
 #N Geom=AllCheck Guess=TCheck SCRF=Check CCSD(T,E4T,FrzG4)/GTBas1\\Tit
 le Card Required\\0,1\S,0,-0.7860955852,0.5706344784,-0.0001737398\O,0
 ,-1.1481163531,-0.6291027095,-0.679917032\O,0,-1.1783733678,1.79303617
 37,-0.9566464646\H,0,-1.3521671569,2.5722337271,-0.4065923111\O,0,-1.1
 800284634,0.8823290972,1.3422496152\C,0,1.0698149314,0.7169265762,-0.0
 789265877\F,0,1.4821126091,0.5570688265,-1.3244441696\F,0,1.5978352235
 ,-0.2169855597,0.6951609137\F,0,1.4278643024,1.9185683301,0.360266776\

 81\MP4SDQ=-960.1002825\CCSD=-960.0932396\CCSD(T)=-960.1305095\RMSD=3.8
 Normal termination of Gaussian 09 at Thu Jun 22 22:01:09 2017.

 Structure from the checkpoint file:  "CF3SO3Hg4.chk"
 -------------------
 Title Card Required
 -------------------
 Charge =  0 Multiplicity = 1

 SCF Done:  E(RHF) =  -958.783228327     A.U. after   11 cycles
 E2 =    -0.1348007558D+01 EUMP2 =    -0.96013123588426D+03
 Normal termination of Gaussian 09 at Thu Jun 22 23:24:15 2017.

 Structure from the checkpoint file:  "CF3SO3Hg4.chk"
 -------------------
 Title Card Required
 -------------------
 Charge =  0 Multiplicity = 1

 SCF Done:  E(RHF) =  -958.854570444     A.U. after   12 cycles
 E2 =    -0.1668946648D+01 EUMP2 =    -0.96052351709164D+03
 Normal termination of Gaussian 09 at Fri Jun 23 07:53:51 2017.

 Structure from the checkpoint file:  "CF3SO3Hg4.chk"
 -------------------
 Title Card Required
 -------------------
 Charge =  0 Multiplicity = 1

 SCF Done:  E(RHF) =  -959.072719602     A.U. after   12 cycles
 E2 =    -0.2455759332D+01 EUMP2 =    -0.96152847893419D+03
 Normal termination of Gaussian 09 at Fri Jun 23 08:51:50 2017.
 SCF Done:  E(RHF) =  -959.122457439     A.U. after   10 cycles
 Normal termination of Gaussian 09 at Fri Jun 23 10:11:51 2017.

                         Standard orientation:
 ---------------------------------------------------------------------
 Center     Atomic      Atomic             Coordinates (Angstroms)
 Number     Number       Type             X           Y           Z
 ---------------------------------------------------------------------
      1         16           0       -0.853543   -0.141689    0.078472
      2          8           0       -1.213306   -1.353511   -0.580722
      3          8           0       -1.247617    1.063478   -0.898905
      4          1           0       -1.422910    1.851683   -0.362326
      5          8           0       -1.248416    0.192277    1.415251
      6          6           0        1.002139    0.006413   -0.002264
      7          9           0        1.415088   -0.174047   -1.244748
      8          9           0        1.531519   -0.913198    0.787851
      9          9           0        1.358001    1.216013    0.416381
 ---------------------------------------------------------------------

 SCF Done:  E(RHF) =  -959.145283363     A.U. after    9 cycles

 The electronic state is 1-A.
 Alpha  occ. eigenvalues --  -92.25214 -26.38742 -26.38502 -26.38497 -20.67257
 Alpha  occ. eigenvalues --  -20.60630 -20.60201 -11.57089  -9.21694  -6.90364
 Alpha  occ. eigenvalues --   -6.90244  -6.90165  -1.78405  -1.68838  -1.68761
 Alpha  occ. eigenvalues --   -1.55124  -1.43552  -1.40594  -1.05543  -0.94754
 Alpha  occ. eigenvalues --   -0.87916  -0.87651  -0.86539  -0.78024  -0.76072
 Alpha  occ. eigenvalues --   -0.75404  -0.72665  -0.71688  -0.71454  -0.71122
 Alpha  occ. eigenvalues --   -0.69770  -0.67033  -0.61176  -0.57280  -0.55484
 Alpha  occ. eigenvalues --   -0.53189  -0.52031
 Alpha virt. eigenvalues --    0.03655   0.04466   0.05426   0.05566   0.07272
 Alpha virt. eigenvalues --    0.07876   0.07951   0.10757   0.11095   0.13534
 Alpha virt. eigenvalues --    0.14770   0.15154   0.15875   0.16243   0.16886

 Mulliken charges:
               1
     1  S    1.001702
     2  O   -0.443676
     3  O   -0.547215
     4  H    0.424846
     5  O   -0.478803
     6  C    0.803825
     7  F   -0.245253
     8  F   -0.252720
     9  F   -0.262706
 Sum of Mulliken charges =   0.00000

 Dipole moment (field-independent basis, Debye):
    X=              0.5598    Y=              2.8744    Z=             -0.3655  Tot=              2.9512
 Quadrupole moment (field-independent basis, Debye-Ang):
   XX=            -50.1631   YY=            -47.5062   ZZ=            -54.8923
   XY=             -4.9297   XZ=              0.7305   YZ=             -1.5743

 Normal termination of Gaussian 09 at Fri Jun 23 19:29:13 2017.
