 Gaussian 09, Revision D.01,
 Gaussian 09:  AM64L-G09RevD.01 24-Apr-2013

 ----------------------
 # g4 geom=connectivity
 ----------------------

 -------------------
 Title Card Required
 -------------------
 Symbolic Z-matrix:
 Charge =  0 Multiplicity = 1

 SCF Done:  E(RB3LYP) =  -724.294138273     A.U. after   14 cycles
 SCF Done:  E(RB3LYP) =  -724.295373471     A.U. after   11 cycles
 SCF Done:  E(RB3LYP) =  -724.295627432     A.U. after   11 cycles
 SCF Done:  E(RB3LYP) =  -724.295637045     A.U. after    9 cycles
 SCF Done:  E(RB3LYP) =  -724.295624924     A.U. after    9 cycles
 SCF Done:  E(RB3LYP) =  -724.295655729     A.U. after   10 cycles
 SCF Done:  E(RB3LYP) =  -724.295665074     A.U. after   10 cycles
 SCF Done:  E(RB3LYP) =  -724.295667325     A.U. after    8 cycles
 Optimization completed.
    -- Stationary point found.
 Normal termination of Gaussian 09 at Thu Jun 22 18:03:53 2017.

 ----------------------------------------------------------
 #N Geom=AllCheck Guess=TCheck SCRF=Check B3LYP/GTBas3 Freq
 ----------------------------------------------------------

 Structure from the checkpoint file:  "FHSO3g4.chk"
 -------------------
 Title Card Required
 -------------------
 Charge =  0 Multiplicity = 1

 SCF Done:  E(RB3LYP) =  -724.295667325     A.U. after    1 cycles

  Exact polarizability:  29.021   1.548  27.160  -0.810   0.741  24.604
 Approx polarizability:  43.790   5.395  45.588  -1.055   1.922  38.052

                      1                      2                      3
                      A                      A                      A
 Frequencies --    279.2461               361.6247               408.0304
 Red. masses --      1.3995                14.7533                 3.2292
 Frc consts  --      0.0643                 1.1367                 0.3168
 IR Inten    --     73.6915                 0.2291                28.2653

                      4                      5                      6
                      A                      A                      A
 Frequencies --    502.1874               523.0501               537.0321
 Red. masses --      7.5577                17.7659                15.1434
 Frc consts  --      1.1230                 2.8637                 2.5732
 IR Inten    --     25.0972                16.2219                31.9302

                      7                      8                      9
                      A                      A                      A
 Frequencies --    810.1750               880.7769              1166.3279
 Red. masses --     19.2344                19.4000                 1.1962
 Frc consts  --      7.4385                 8.8671                 0.9587
 IR Inten    --    118.0911               235.6818                77.9715

                     10                     11                     12
                      A                      A                      A
 Frequencies --   1238.4650              1485.2318              3767.1664
 Red. masses --     18.5703                12.9317                 1.0655
 Frc consts  --     16.7817                16.8072                 8.9088
 IR Inten    --    153.9027               234.5704               129.0178

 - Thermochemistry -
 -------------------
 Temperature   298.150 Kelvin.  Pressure   1.00000 Atm.
 Atom     1 has atomic number 16 and mass  31.97207

 Molecular mass:    99.96304 amu.
 Principal axes and moments of inertia in atomic units:
                           1         2         3
     Eigenvalues --   360.49544 363.83438 369.98586
           X            0.86873   0.28397  -0.40580
           Y           -0.06437   0.87710   0.47597
           Z            0.49109  -0.38736   0.78025
 This molecule is an asymmetric top.
 Rotational symmetry number  1.
 Rotational temperatures (Kelvin)      0.24026     0.23806     0.23410
 Rotational constants (GHZ):           5.00628     4.96034     4.87787
 Zero-point vibrational energy      71532.6 (Joules/Mol)
                                   17.09670 (Kcal/Mol)
 Warning -- explicit consideration of   6 degrees of freedom as
           vibrations may cause significant error
 Vibrational temperatures:    401.77   520.30   587.06   722.53   752.55
          (Kelvin)            772.67  1165.66  1267.24  1678.08  1781.87
                             2136.91  5420.11

 Zero-point correction=                           0.027245 (Hartree/Particle)
 Thermal correction to Energy=                    0.031975
 Thermal correction to Enthalpy=                  0.032920
 Thermal correction to Gibbs Free Energy=        -0.000798
 Sum of electronic and zero-point Energies=           -724.268422
 Sum of electronic and thermal Energies=              -724.263692
 Sum of electronic and thermal Enthalpies=            -724.262748
 Sum of electronic and thermal Free Energies=         -724.296465

                     E (Thermal)             CV                S
                      KCal/Mol        Cal/Mol-Kelvin    Cal/Mol-Kelvin
 Total                   20.065             15.939             70.964
 Electronic               0.000              0.000              0.000
 Translational            0.889              2.981             39.717
 Rotational               0.889              2.981             25.387
 Vibrational             18.287              9.977              5.860
 Vibration     1          0.680              1.712              1.538
 Vibration     2          0.736              1.551              1.115
 Vibration     3          0.773              1.453              0.934
 Vibration     4          0.858              1.245              0.653
 Vibration     5          0.878              1.199              0.603
 Vibration     6          0.892              1.168              0.572

 Optimization completed.
    -- Stationary point found.
 Normal termination of Gaussian 09 at Thu Jun 22 18:10:14 2017.

 -----------------------------------------------------------------
 #N Geom=AllCheck Guess=TCheck SCRF=Check CCSD(T,E4T,FrzG4)/GTBas1
 -----------------------------------------------------------------

 Structure from the checkpoint file:  "FHSO3g4.chk"
 -------------------
 Title Card Required
 -------------------
 Charge =  0 Multiplicity = 1

 SCF Done:  E(RHF) =  -722.030912737     A.U. after   12 cycles
 E2 =    -0.8553110189D+00 EUMP2 =    -0.72288622375611D+03
 CCSD(T)= -0.72291215981D+03
 .9199812\MP4SDQ=-722.8918358\CCSD=-722.8883973\CCSD(T)=-722.9121598\RM
 Normal termination of Gaussian 09 at Thu Jun 22 18:14:50 2017.

 ---------------------------------------------------------
 #N Geom=AllCheck Guess=TCheck SCRF=Check MP4=FrzG4/GTBas2
 ---------------------------------------------------------

 Structure from the checkpoint file:  "FHSO3g4.chk"
 -------------------
 Title Card Required
 -------------------
 Charge =  0 Multiplicity = 1

 SCF Done:  E(RHF) =  -722.041114155     A.U. after   11 cycles
 E2 =    -0.8712289239D+00 EUMP2 =    -0.72291234307871D+03
 Normal termination of Gaussian 09 at Thu Jun 22 18:19:05 2017.

 ---------------------------------------------------------
 #N Geom=AllCheck Guess=TCheck SCRF=Check MP4=FrzG4/GTBas3
 ---------------------------------------------------------

 Structure from the checkpoint file:  "FHSO3g4.chk"
 -------------------
 Title Card Required
 -------------------
 Charge =  0 Multiplicity = 1

 SCF Done:  E(RHF) =  -722.110673636     A.U. after   11 cycles
 E2 =    -0.1070885646D+01 EUMP2 =    -0.72318155928196D+03
 Normal termination of Gaussian 09 at Thu Jun 22 18:44:04 2017.

 -----------------------------------------------------------
 #N Geom=AllCheck Guess=TCheck SCRF=Check MP2=Full/GTLargeXP
 -----------------------------------------------------------

 Structure from the checkpoint file:  "FHSO3g4.chk"
 -------------------
 Title Card Required
 -------------------
 Charge =  0 Multiplicity = 1

 SCF Done:  E(RHF) =  -722.255972696     A.U. after   11 cycles
 E2 =    -0.1656816457D+01 EUMP2 =    -0.72391278915309D+03
 Normal termination of Gaussian 09 at Thu Jun 22 18:54:59 2017.
 SCF Done:  E(RHF) =  -722.286561622     A.U. after    9 cycles
 Normal termination of Gaussian 09 at Thu Jun 22 19:12:21 2017.

                         Standard orientation:
 ---------------------------------------------------------------------
 Center     Atomic      Atomic             Coordinates (Angstroms)
 Number     Number       Type             X           Y           Z
 ---------------------------------------------------------------------
      1         16           0        0.078100   -0.014157   -0.143850
      2          8           0        1.079606    0.897743   -0.559249
      3          8           0       -1.212160    0.830140    0.217149
      4          1           0       -1.986387    0.247570    0.185111
      5          8           0       -0.297199   -1.187104   -0.859334
      6          9           0        0.463867   -0.483032    1.303106
 ---------------------------------------------------------------------

 SCF Done:  E(RHF) =  -722.305628514     A.U. after    9 cycles

 The electronic state is 1-A.
 Alpha  occ. eigenvalues --  -92.29143 -26.38144 -20.67861 -20.61076 -20.60634
 Alpha  occ. eigenvalues --   -9.24950  -6.93729  -6.93598  -6.93433  -1.71477
 Alpha  occ. eigenvalues --   -1.54091  -1.44443  -1.41629  -0.95644  -0.85286
 Alpha  occ. eigenvalues --   -0.78532  -0.78153  -0.74388  -0.70768  -0.66598
 Alpha  occ. eigenvalues --   -0.63523  -0.59744  -0.57041  -0.55095  -0.53456
 Alpha virt. eigenvalues --    0.03412   0.05803   0.06154   0.06319   0.10494
 Alpha virt. eigenvalues --    0.11475   0.12330   0.12853   0.13053   0.16115
 Alpha virt. eigenvalues --    0.16834   0.17960   0.18266   0.18711   0.19726

 Mulliken charges:
               1
     1  S    1.225737
     2  O   -0.419936
     3  O   -0.508192
     4  H    0.419394
     5  O   -0.455976
     6  F   -0.261026
 Sum of Mulliken charges =   0.00000

 Dipole moment (field-independent basis, Debye):
    X=             -2.8614    Y=             -0.1609    Z=              1.1460  Tot=              3.0866
 Quadrupole moment (field-independent basis, Debye-Ang):
   XX=            -29.2724   YY=            -38.0514   ZZ=            -35.4508
   XY=             -1.4385   XZ=             -0.0037   YZ=             -0.9793

 Normal termination of Gaussian 09 at Thu Jun 22 21:29:07 2017.
