 Gaussian 09, Revision D.01,
 Gaussian 09:  AM64L-G09RevD.01 24-Apr-2013

 ----------------------
 # g4 geom=connectivity
 ----------------------

 -------------------
 Title Card Required
 -------------------
 Symbolic Z-matrix:
 Charge = -1 Multiplicity = 1

 SCF Done:  E(RB3LYP) =  -723.781705931     A.U. after   13 cycles
 SCF Done:  E(RB3LYP) =  -723.783009198     A.U. after   12 cycles
 SCF Done:  E(RB3LYP) =  -723.783266342     A.U. after   11 cycles
 SCF Done:  E(RB3LYP) =  -723.783278425     A.U. after    8 cycles
 SCF Done:  E(RB3LYP) =  -723.783281023     A.U. after    8 cycles
 Optimization completed.
    -- Stationary point found.
 Normal termination of Gaussian 09 at Thu Jun 22 09:51:40 2017.

 ----------------------------------------------------------
 #N Geom=AllCheck Guess=TCheck SCRF=Check B3LYP/GTBas3 Freq
 ----------------------------------------------------------

 Structure from the checkpoint file:  "FHSO3-Ag4.chk"
 -------------------
 Title Card Required
 -------------------
 Charge = -1 Multiplicity = 1

 SCF Done:  E(RB3LYP) =  -723.783281023     A.U. after    1 cycles

  Exact polarizability:  25.599   0.011  28.181   0.012   0.001  28.178
 Approx polarizability:  38.648   0.032  45.689   0.033   0.000  45.680

                      1                      2                      3
                      A                      A                      A
 Frequencies --    383.2363               383.6530               529.8291
 Red. masses --     16.9606                16.9569                17.8500
 Frc consts  --      1.4677                 1.4705                 2.9523
 IR Inten    --      0.0020                 0.0010                 0.0415

                      4                      5                      6
                      A                      A                      A
 Frequencies --    565.2798               565.5212               719.3258
 Red. masses --     17.9288                17.9244                23.3111
 Frc consts  --      3.3754                 3.3775                 7.1066
 IR Inten    --     27.3728                27.3851               217.7846

                      7                      8                      9
                      A                      A                      A
 Frequencies --   1061.6632              1310.7183              1310.9308
 Red. masses --     16.8054                20.8381                20.8395
 Frc consts  --     11.1602                21.0924                21.1007
 IR Inten    --     57.3179               294.2375               294.2766

 - Thermochemistry -
 -------------------
 Temperature   298.150 Kelvin.  Pressure   1.00000 Atm.
 Atom     1 has atomic number 16 and mass  31.97207

 Molecular mass:    98.95522 amu.
 Principal axes and moments of inertia in atomic units:
                           1         2         3
     Eigenvalues --   345.18460 361.72841 361.78042
           X            1.00000   0.00188   0.00191
           Y           -0.00188   1.00000  -0.00126
           Z           -0.00191   0.00125   1.00000
 This molecule is an asymmetric top.
 Rotational symmetry number  1.
 Rotational temperatures (Kelvin)      0.25092     0.23944     0.23941
 Rotational constants (GHZ):           5.22834     4.98922     4.98850
 Zero-point vibrational energy      40853.4 (Joules/Mol)
                                    9.76420 (Kcal/Mol)
 Warning -- explicit consideration of   5 degrees of freedom as
           vibrations may cause significant error
 Vibrational temperatures:    551.39   551.99   762.30   813.31   813.66
          (Kelvin)           1034.95  1527.49  1885.83  1886.13

 Zero-point correction=                           0.015560 (Hartree/Particle)
 Thermal correction to Energy=                    0.019763
 Thermal correction to Enthalpy=                  0.020707
 Thermal correction to Gibbs Free Energy=        -0.012114
 Sum of electronic and zero-point Energies=           -723.767721
 Sum of electronic and thermal Energies=              -723.763518
 Sum of electronic and thermal Enthalpies=            -723.762574
 Sum of electronic and thermal Free Energies=         -723.795395

                     E (Thermal)             CV                S
                      KCal/Mol        Cal/Mol-Kelvin    Cal/Mol-Kelvin
 Total                   12.401             13.762             69.077
 Electronic               0.000              0.000              0.000
 Translational            0.889              2.981             39.687
 Rotational               0.889              2.981             25.316
 Vibrational             10.624              7.800              4.074
 Vibration     1          0.752              1.506              1.026
 Vibration     2          0.753              1.505              1.025
 Vibration     3          0.885              1.184              0.588
 Vibration     4          0.921              1.106              0.513
 Vibration     5          0.921              1.106              0.513

 Optimization completed.
    -- Stationary point found.
 Normal termination of Gaussian 09 at Thu Jun 22 09:52:49 2017.

 -----------------------------------------------------------------
 #N Geom=AllCheck Guess=TCheck SCRF=Check CCSD(T,E4T,FrzG4)/GTBas1
 -----------------------------------------------------------------

 Structure from the checkpoint file:  "FHSO3-Ag4.chk"
 -------------------
 Title Card Required
 -------------------
 Charge = -1 Multiplicity = 1

 SCF Done:  E(RHF) =  -721.538010095     A.U. after   11 cycles
 E2 =    -0.8558934666D+00 EUMP2 =    -0.72239390356145D+03
 CCSD(T)= -0.72241618883D+03
 2.3926687\CCSD(T)=-722.4161888\RMSD=3.571e-09\PG=C01 [X(F1O3S1)]\\@
 Normal termination of Gaussian 09 at Thu Jun 22 10:39:47 2017.

 ---------------------------------------------------------
 #N Geom=AllCheck Guess=TCheck SCRF=Check MP4=FrzG4/GTBas2
 ---------------------------------------------------------

 Structure from the checkpoint file:  "FHSO3-Ag4.chk"
 -------------------
 Title Card Required
 -------------------
 Charge = -1 Multiplicity = 1

 SCF Done:  E(RHF) =  -721.558266377     A.U. after   11 cycles
 E2 =    -0.8802668365D+00 EUMP2 =    -0.72243853321364D+03
 Normal termination of Gaussian 09 at Thu Jun 22 10:43:50 2017.

 ---------------------------------------------------------
 #N Geom=AllCheck Guess=TCheck SCRF=Check MP4=FrzG4/GTBas3
 ---------------------------------------------------------

 Structure from the checkpoint file:  "FHSO3-Ag4.chk"
 -------------------
 Title Card Required
 -------------------
 Charge = -1 Multiplicity = 1

 SCF Done:  E(RHF) =  -721.602203453     A.U. after   11 cycles
 E2 =    -0.1071743473D+01 EUMP2 =    -0.72267394692592D+03
 Normal termination of Gaussian 09 at Thu Jun 22 10:57:35 2017.

 -----------------------------------------------------------
 #N Geom=AllCheck Guess=TCheck SCRF=Check MP2=Full/GTLargeXP
 -----------------------------------------------------------

 Structure from the checkpoint file:  "FHSO3-Ag4.chk"
 -------------------
 Title Card Required
 -------------------
 Charge = -1 Multiplicity = 1

 SCF Done:  E(RHF) =  -721.760304229     A.U. after   11 cycles
 E2 =    -0.1665119368D+01 EUMP2 =    -0.72342542359730D+03
 Normal termination of Gaussian 09 at Thu Jun 22 11:00:20 2017.
 SCF Done:  E(RHF) =  -721.790294642     A.U. after    9 cycles
 Normal termination of Gaussian 09 at Thu Jun 22 11:01:39 2017.

                         Standard orientation:
 ---------------------------------------------------------------------
 Center     Atomic      Atomic             Coordinates (Angstroms)
 Number     Number       Type             X           Y           Z
 ---------------------------------------------------------------------
      1         16           0        0.152370   -0.000626   -0.000598
      2          8           0        0.450659   -1.403655   -0.224157
      3          8           0        0.465082    0.506578    1.323184
      4          8           0        0.456418    0.891728   -1.104569
      5          9           0       -1.490576    0.005868    0.005989
 ---------------------------------------------------------------------

 SCF Done:  E(RHF) =  -721.808892162     A.U. after    9 cycles

 The electronic state is 1-A.
 Alpha  occ. eigenvalues --  -92.03294 -26.12581 -20.36257 -20.36256 -20.36252
 Alpha  occ. eigenvalues --   -8.99106  -6.67949  -6.67634  -6.67634  -1.44325
 Alpha  occ. eigenvalues --   -1.27909  -1.15401  -1.15398  -0.66977  -0.55027
 Alpha  occ. eigenvalues --   -0.52455  -0.52455  -0.45696  -0.45694  -0.36522
 Alpha  occ. eigenvalues --   -0.35375  -0.35373  -0.30160  -0.30158  -0.26474
 Alpha virt. eigenvalues --    0.17392   0.17766   0.17766   0.18781   0.24420
 Alpha virt. eigenvalues --    0.24421   0.25413   0.27278   0.27278   0.30641
 Alpha virt. eigenvalues --    0.31382   0.31382   0.32185   0.33897   0.34805

 Mulliken charges:
               1
     1  S    1.298733
     2  O   -0.628116
     3  O   -0.628116
     4  O   -0.628155
     5  F   -0.414346
 Sum of Mulliken charges =  -1.00000

 Dipole moment (field-independent basis, Debye):
    X=             -0.9941    Y=              0.0036    Z=              0.0044  Tot=              0.9941
 Quadrupole moment (field-independent basis, Debye-Ang):
   XX=            -38.5998   YY=            -42.7670   ZZ=            -42.7649
   XY=             -0.0181   XZ=             -0.0183   YZ=              0.0003

 Normal termination of Gaussian 09 at Thu Jun 22 11:22:30 2017.
