 Gaussian 09, Revision D.01,

 -----------------------------------------
 # opt freq b3lyp/6-311g geom=connectivity
 -----------------------------------------

 -------------------
 Title Card Required
 -------------------
 Symbolic Z-matrix:
 Charge =  0 Multiplicity = 1

 SCF Done:  E(RB3LYP) =  -1179.87016080     A.U. after   17 cycles
 SCF Done:  E(RB3LYP) =  -1179.95713823     A.U. after   16 cycles
 SCF Done:  E(RB3LYP) =  -1179.99309124     A.U. after   16 cycles
 SCF Done:  E(RB3LYP) =  -1180.00477469     A.U. after   14 cycles
 SCF Done:  E(RB3LYP) =  -1180.01325915     A.U. after   16 cycles
 SCF Done:  E(RB3LYP) =  -1180.01504753     A.U. after   15 cycles
 SCF Done:  E(RB3LYP) =  -1180.01654719     A.U. after   15 cycles
 SCF Done:  E(RB3LYP) =  -1180.01681943     A.U. after   13 cycles
 SCF Done:  E(RB3LYP) =  -1180.01698502     A.U. after   13 cycles
 SCF Done:  E(RB3LYP) =  -1180.01706976     A.U. after   13 cycles
 SCF Done:  E(RB3LYP) =  -1180.01929138     A.U. after    9 cycles
 SCF Done:  E(RB3LYP) =  -1180.01929178     A.U. after    9 cycles
 SCF Done:  E(RB3LYP) =  -1180.01929266     A.U. after    9 cycles
 SCF Done:  E(RB3LYP) =  -1180.01929321     A.U. after    9 cycles
 SCF Done:  E(RB3LYP) =  -1180.01929328     A.U. after    8 cycles
 SCF Done:  E(RB3LYP) =  -1180.01929339     A.U. after    8 cycles
 Optimization completed.
    -- Stationary point found.
 Normal termination of Gaussian 09 at Fri Jun 23 05:03:23 2017.

 ------------------------------------------------------------------
 #N Geom=AllCheck Guess=TCheck SCRF=Check GenChk RB3LYP/6-311G Freq
 ------------------------------------------------------------------

 Structure from the checkpoint file:  "H2ClPO4-h2o.chk"
 -------------------
 Title Card Required
 -------------------
 Charge =  0 Multiplicity = 1

 SCF Done:  E(RB3LYP) =  -1180.01929339     A.U. after    1 cycles

  Exact polarizability:  70.556  -4.052  54.815   1.237   2.268  36.785
 Approx polarizability: 107.900  -4.602  70.539   7.367   9.384  60.128

                      1                      2                      3
                      A                      A                      A
 Frequencies --     13.9120                57.1243                86.5646
 Red. masses --      5.0024                 7.6839                 1.3990
 Frc consts  --      0.0006                 0.0148                 0.0062
 IR Inten    --     27.6789                15.7571               184.4608

                      4                      5                      6
                      A                      A                      A
 Frequencies --    107.1514               145.6956               183.1039
 Red. masses --      4.9248                 6.1188                 3.7833
 Frc consts  --      0.0333                 0.0765                 0.0747
 IR Inten    --     19.5930                12.6151                44.3750

                      7                      8                      9
                      A                      A                      A
 Frequencies --    229.1477               303.5309               326.6322
 Red. masses --      7.8720                 1.4387                 5.3798
 Frc consts  --      0.2435                 0.0781                 0.3382
 IR Inten    --      3.3259                81.7304                47.8767

                     10                     11                     12
                      A                      A                      A
 Frequencies --    358.5622               371.8238               408.4944
 Red. masses --      5.3599                 8.0261                 5.0654
 Frc consts  --      0.4060                 0.6538                 0.4980
 IR Inten    --     18.7815                13.1687                80.6870

                     13                     14                     15
                      A                      A                      A
 Frequencies --    417.6477               499.5311               551.6564
 Red. masses --      1.3852                 1.2660                 8.6056
 Frc consts  --      0.1424                 0.1861                 1.5430
 IR Inten    --    125.7489               131.1045               158.8104

                     16                     17                     18
                      A                      A                      A
 Frequencies --    693.4262               740.8775               823.0881
 Red. masses --     13.0227                17.0843                 7.0568
 Frc consts  --      3.6894                 5.5251                 2.8168
 IR Inten    --    154.7722                69.7145               139.8197

                     19                     20                     21
                      A                      A                      A
 Frequencies --    906.6962              1029.3958              1093.7028
 Red. masses --      1.0690                 1.7986                 3.1749
 Frc consts  --      0.5178                 1.1229                 2.2376
 IR Inten    --    367.1506                12.7722               183.1731

                     22                     23                     24
                      A                      A                      A
 Frequencies --   1451.1850              1595.7325              2730.1178
 Red. masses --      1.0770                 1.1010                 1.0745
 Frc consts  --      1.3363                 1.6519                 4.7186
 IR Inten    --    235.6278               108.7053              1836.2901

                     25                     26                     27
                      A                      A                      A
 Frequencies --   3657.8815              3707.1992              3870.1851
 Red. masses --      1.0422                 1.0669                 1.0840
 Frc consts  --      8.2156                 8.6389                 9.5663
 IR Inten    --     55.7466                95.6486               109.5152

 - Thermochemistry -
 -------------------
 Temperature   298.150 Kelvin.  Pressure   1.00000 Atm.
 Atom     1 has atomic number 15 and mass  30.97376

 Molecular mass:   149.94849 amu.
 Principal axes and moments of inertia in atomic units:
                           1         2         3
     Eigenvalues --  1082.841271310.955831948.41577
           X            0.96916   0.24641  -0.00211
           Y           -0.24642   0.96906  -0.01443
           Z           -0.00151   0.01450   0.99989
 This molecule is an asymmetric top.
 Rotational symmetry number  1.
 Warning -- assumption of classical behavior for rotation
           may cause significant error
 Rotational temperatures (Kelvin)      0.07999     0.06607     0.04445
 Rotational constants (GHZ):           1.66667     1.37666     0.92626
 Zero-point vibrational energy     157668.2 (Joules/Mol)
                                   37.68361 (Kcal/Mol)
 Warning -- explicit consideration of  15 degrees of freedom as
           vibrations may cause significant error
 Vibrational temperatures:     20.02    82.19   124.55   154.17   209.62
          (Kelvin)            263.45   329.69   436.71   469.95   515.89
                              534.97   587.73   600.90   718.71   793.71
                              997.68  1065.96  1184.24  1304.53  1481.07
                             1573.59  2087.93  2295.90  3928.03  5262.87
                             5333.83  5568.33

 Zero-point correction=                           0.060053 (Hartree/Particle)
 Thermal correction to Energy=                    0.070760
 Thermal correction to Enthalpy=                  0.071704
 Thermal correction to Gibbs Free Energy=         0.021729
 Sum of electronic and zero-point Energies=          -1179.959241
 Sum of electronic and thermal Energies=             -1179.948533
 Sum of electronic and thermal Enthalpies=           -1179.947589
 Sum of electronic and thermal Free Energies=        -1179.997565

                     E (Thermal)             CV                S
                      KCal/Mol        Cal/Mol-Kelvin    Cal/Mol-Kelvin
 Total                   44.403             34.513            105.182
 Electronic               0.000              0.000              0.000
 Translational            0.889              2.981             40.926
 Rotational               0.889              2.981             29.404
 Vibrational             42.625             28.551             34.852
 Vibration     1          0.593              1.986              7.355
 Vibration     2          0.596              1.975              4.554
 Vibration     3          0.601              1.959              3.736
 Vibration     4          0.606              1.944              3.320
 Vibration     5          0.617              1.907              2.728
 Vibration     6          0.631              1.863              2.297
 Vibration     7          0.652              1.797              1.886
 Vibration     8          0.695              1.667              1.397
 Vibration     9          0.710              1.622              1.277
 Vibration    10          0.733              1.558              1.128
 Vibration    11          0.744              1.530              1.072
 Vibration    12          0.773              1.452              0.932
 Vibration    13          0.781              1.432              0.900
 Vibration    14          0.855              1.251              0.659
 Vibration    15          0.907              1.136              0.541

 Normal termination of Gaussian 09 at Fri Jun 23 05:03:44 2017.

 ---------------------------------------------
 # B3LYP/6-311+G(2df,2p) geom=check guess=read
 ---------------------------------------------

 -------------------
 Title Card Required
 -------------------
 Structure from the checkpoint file:  "H2ClPO4-h2o.chk"
 Charge =  0 Multiplicity = 1

 SCF Done:  E(RB3LYP) =  -1180.32098601     A.U. after   14 cycles
 Normal termination of Gaussian 09 at Fri Jun 23 05:04:40 2017.

 --------------------------------------------------
 # B3LYP/6-311G** geom=check guess=read pop=nboread
 --------------------------------------------------

 -------------------
 Title Card Required
 -------------------
 Structure from the checkpoint file:  "H2ClPO4-h2o.chk"
 Charge =  0 Multiplicity = 1

 SCF Done:  E(RB3LYP) =  -1180.24770304     A.U. after   12 cycles

 Summary of Natural Population Analysis:

                                       Natural Population
                Natural  -----------------------------------------------
    Atom  No    Charge         Core      Valence    Rydberg      Total
 -----------------------------------------------------------------------
      P    1    2.34422      9.99925     2.52006    0.13648    12.65578
      O    2   -0.78393      1.99990     6.77728    0.00675     8.78393
      O    3   -0.94426      1.99980     6.93629    0.00817     8.94426
      H    4    0.50521      0.00000     0.48982    0.00496     0.49479
      O    5   -0.96807      1.99986     6.96144    0.00678     8.96807
      O    6   -0.96984      1.99976     6.96349    0.00658     8.96984
      H    7    0.53257      0.00000     0.46054    0.00689     0.46743
     Cl    8    0.20701      9.99993     6.77792    0.01513    16.79299
      O    9   -0.92108      1.99977     6.91257    0.00875     8.92108
      H   10    0.50854      0.00000     0.48583    0.00562     0.49146
      H   11    0.48963      0.00000     0.50575    0.00463     0.51037
 =======================================================================
   * Total *    0.00000     29.99826    45.79100    0.21074    76.00000

 Normal termination of Gaussian 09 at Fri Jun 23 05:04:53 2017.
 Gaussian 09:  AM64L-G09RevD.01 24-Apr-2013

 -------------------------------------------------
 # B3LYP/6-311G** geom=check guess=read output=wfx
 -------------------------------------------------

 -------------------
 Title Card Required
 -------------------
 Structure from the checkpoint file:  "H2ClPO4-h2o.chk"
 Charge =  0 Multiplicity = 1

                         Standard orientation:
 ---------------------------------------------------------------------
 Center     Atomic      Atomic             Coordinates (Angstroms)
 Number     Number       Type             X           Y           Z
 ---------------------------------------------------------------------
      1         15           0       -0.278010    0.894667    0.131839
      2          8           0        0.296661   -0.795867   -0.081094
      3          8           0        0.147331    1.610663   -1.340771
      4          1           0        0.729665    2.387667   -1.271803
      5          8           0        0.250984    1.636950    1.398023
      6          8           0       -1.858833    0.508357   -0.064099
      7          1           0       -2.145829   -0.476013   -0.012806
      8         17           0        2.104215   -1.072656   -0.008239
      9          8           0       -2.117899   -1.982187    0.042975
     10          1           0       -1.182807   -2.238982   -0.028936
     11          1           0       -2.748484   -2.680860   -0.164258
 ---------------------------------------------------------------------

 SCF Done:  E(RB3LYP) =  -1180.24770304     A.U. after    1 cycles

 The electronic state is 1-A.
 Alpha  occ. eigenvalues -- -101.61564 -77.23487 -19.21525 -19.17394 -19.16715
 Alpha  occ. eigenvalues --  -19.15632 -19.11262  -9.52422  -7.29376  -7.27727
 Alpha  occ. eigenvalues --   -7.27682  -6.70906  -4.87286  -4.87128  -4.86915
 Alpha  occ. eigenvalues --   -1.08422  -1.06079  -1.03520  -1.02133  -0.96344
 Alpha  occ. eigenvalues --   -0.82294  -0.65367  -0.60131  -0.56324  -0.53518
 Alpha  occ. eigenvalues --   -0.47442  -0.45344  -0.43716  -0.42229  -0.40039
 Alpha  occ. eigenvalues --   -0.38612  -0.37642  -0.36427  -0.35713  -0.33818
 Alpha  occ. eigenvalues --   -0.32216  -0.30790  -0.30562
 Alpha virt. eigenvalues --   -0.14365  -0.01764   0.01100   0.03984   0.05202
 Alpha virt. eigenvalues --    0.09336   0.10036   0.11792   0.17823   0.18769
 Alpha virt. eigenvalues --    0.20511   0.23266   0.27268   0.29369   0.29593

 Mulliken charges:
               1
     1  P    1.312028
     2  O   -0.585730
     3  O   -0.535214
     4  H    0.320223
     5  O   -0.545055
     6  O   -0.578001
     7  H    0.381770
     8  Cl   0.145597
     9  O   -0.519332
    10  H    0.310798
    11  H    0.292916
 Sum of Mulliken charges =   0.00000

 Dipole moment (field-independent basis, Debye):
    X=             -0.6354    Y=             -3.3078    Z=             -2.2415  Tot=              4.0459
 Quadrupole moment (field-independent basis, Debye-Ang):
   XX=            -47.0684   YY=            -42.9695   ZZ=            -61.3797
   XY=             10.1436   XZ=             -1.2257   YZ=             -4.4511

 Normal termination of Gaussian 09 at Fri Jun 23 05:04:56 2017.
