 Gaussian 09, Revision D.01,

 -----------------------------------------
 # opt freq b3lyp/6-311g geom=connectivity
 -----------------------------------------

 -------------------
 Title Card Required
 -------------------
 Symbolic Z-matrix:
 Charge = -1 Multiplicity = 1

 SCF Done:  E(RB3LYP) =  -1103.01477052     A.U. after   19 cycles
 SCF Done:  E(RB3LYP) =  -1103.05360188     A.U. after   16 cycles
 SCF Done:  E(RB3LYP) =  -1103.06570124     A.U. after   16 cycles
 SCF Done:  E(RB3LYP) =  -1103.06707167     A.U. after   14 cycles
 SCF Done:  E(RB3LYP) =  -1103.06749643     A.U. after   14 cycles
 SCF Done:  E(RB3LYP) =  -1103.06767842     A.U. after   14 cycles
 SCF Done:  E(RB3LYP) =  -1103.06793861     A.U. after   14 cycles
 SCF Done:  E(RB3LYP) =  -1103.06811332     A.U. after   13 cycles
 SCF Done:  E(RB3LYP) =  -1103.06836793     A.U. after   13 cycles
 SCF Done:  E(RB3LYP) =  -1103.06845002     A.U. after   15 cycles
 SCF Done:  E(RB3LYP) =  -1103.06851100     A.U. after   13 cycles
 SCF Done:  E(RB3LYP) =  -1103.06853478     A.U. after   12 cycles
 SCF Done:  E(RB3LYP) =  -1103.06853953     A.U. after   10 cycles
 SCF Done:  E(RB3LYP) =  -1103.06854039     A.U. after   10 cycles
 SCF Done:  E(RB3LYP) =  -1103.06854073     A.U. after    9 cycles
 Optimization completed.
    -- Stationary point found.
 Normal termination of Gaussian 09 at Wed Jun 21 05:30:13 2017.

 ------------------------------------------------------------------
 #N Geom=AllCheck Guess=TCheck SCRF=Check GenChk RB3LYP/6-311G Freq
 ------------------------------------------------------------------

 Structure from the checkpoint file:  "H2ClPO4-A.chk"
 -------------------
 Title Card Required
 -------------------
 Charge = -1 Multiplicity = 1

 SCF Done:  E(RB3LYP) =  -1103.06854073     A.U. after    1 cycles

  Exact polarizability:  77.101 -11.070  43.480   0.020   1.633  34.290
 Approx polarizability: 128.223 -37.411  78.854  -4.368  12.127  55.115

                      1                      2                      3
                      A                      A                      A
 Frequencies --     79.2362               124.3525               212.6072
 Red. masses --     13.8466                 9.3673                 3.7091
 Frc consts  --      0.0512                 0.0853                 0.0988
 IR Inten    --      0.6388                 5.5784                29.6137

                      4                      5                      6
                      A                      A                      A
 Frequencies --    246.9839               279.0645               346.4159
 Red. masses --     10.4541                 2.5440                 2.6909
 Frc consts  --      0.3757                 0.1167                 0.1903
 IR Inten    --      3.9464                 9.2334                52.5198

                      7                      8                      9
                      A                      A                      A
 Frequencies --    377.6202               413.3579               525.9566
 Red. masses --     15.8929                15.1795                12.9907
 Frc consts  --      1.3353                 1.5281                 2.1173
 IR Inten    --     29.9809                51.6506               213.3723

                     10                     11                     12
                      A                      A                      A
 Frequencies --    607.4092               654.2795               883.2884
 Red. masses --     18.2020                17.2129                16.3653
 Frc consts  --      3.9567                 4.3414                 7.5228
 IR Inten    --     11.7620               193.2049               141.3888

                     13                     14                     15
                      A                      A                      A
 Frequencies --   1004.8136              1127.3074              3686.3197
 Red. masses --      1.8694                 2.5688                 1.0656
 Frc consts  --      1.1120                 1.9234                 8.5313
 IR Inten    --     65.2505               111.1660                15.9600

 - Thermochemistry -
 -------------------
 Temperature   298.150 Kelvin.  Pressure   1.00000 Atm.
 Atom     1 has atomic number 15 and mass  30.97376

 Molecular mass:   130.93010 amu.
 Principal axes and moments of inertia in atomic units:
                           1         2         3
     Eigenvalues --   471.797501240.439691290.41779
           X            0.99998   0.00454  -0.00346
           Y           -0.00498   0.99018  -0.13974
           Z            0.00279   0.13975   0.99018
 This molecule is an asymmetric top.
 Rotational symmetry number  1.
 Warning -- assumption of classical behavior for rotation
           may cause significant error
 Rotational temperatures (Kelvin)      0.18358     0.06983     0.06712
 Rotational constants (GHZ):           3.82525     1.45492     1.39857
 Zero-point vibrational energy      63216.7 (Joules/Mol)
                                   15.10916 (Kcal/Mol)
 Warning -- explicit consideration of  10 degrees of freedom as
           vibrations may cause significant error
 Vibrational temperatures:    114.00   178.92   305.89   355.35   401.51
          (Kelvin)            498.41   543.31   594.73   756.73   873.93
                              941.36  1270.85  1445.70  1621.94  5303.79

 Zero-point correction=                           0.024078 (Hartree/Particle)
 Thermal correction to Energy=                    0.031457
 Thermal correction to Enthalpy=                  0.032402
 Thermal correction to Gibbs Free Energy=        -0.008332
 Sum of electronic and zero-point Energies=          -1103.044463
 Sum of electronic and thermal Energies=             -1103.037083
 Sum of electronic and thermal Enthalpies=           -1103.036139
 Sum of electronic and thermal Free Energies=        -1103.076873

                     E (Thermal)             CV                S
                      KCal/Mol        Cal/Mol-Kelvin    Cal/Mol-Kelvin
 Total                   19.740             23.977             85.731
 Electronic               0.000              0.000              0.000
 Translational            0.889              2.981             40.521
 Rotational               0.889              2.981             28.115
 Vibrational             17.962             18.016             17.095
 Vibration     1          0.600              1.963              3.910
 Vibration     2          0.610              1.929              3.032
 Vibration     3          0.644              1.822              2.021
 Vibration     4          0.661              1.768              1.752
 Vibration     5          0.679              1.712              1.539
 Vibration     6          0.724              1.583              1.182
 Vibration     7          0.748              1.518              1.049
 Vibration     8          0.777              1.441              0.915
 Vibration     9          0.881              1.193              0.596
 Vibration    10          0.966              1.016              0.437

 Optimization completed.
    -- Stationary point found.
 Normal termination of Gaussian 09 at Wed Jun 21 05:30:47 2017.

 ---------------------------------------------
 # B3LYP/6-311+G(2df,2p) geom=check guess=read
 ---------------------------------------------

 -------------------
 Title Card Required
 -------------------
 Structure from the checkpoint file:  "H2ClPO4-A.chk"
 Charge = -1 Multiplicity = 1

 SCF Done:  E(RB3LYP) =  -1103.33353291     A.U. after   14 cycles
 Normal termination of Gaussian 09 at Wed Jun 21 05:31:41 2017.

 --------------------------------------------------
 # B3LYP/6-311G** geom=check guess=read pop=nboread
 --------------------------------------------------

 -------------------
 Title Card Required
 -------------------
 Structure from the checkpoint file:  "H2ClPO4-A.chk"
 Charge = -1 Multiplicity = 1

 SCF Done:  E(RB3LYP) =  -1103.26013407     A.U. after   12 cycles

 Summary of Natural Population Analysis:

                                       Natural Population
                Natural  -----------------------------------------------
    Atom  No    Charge         Core      Valence    Rydberg      Total
 -----------------------------------------------------------------------
      P    1    2.26299      9.99940     2.58485    0.15276    12.73701
      O    2   -0.70040      1.99993     6.69389    0.00658     8.70040
      O    3   -0.97679      1.99983     6.96752    0.00943     8.97679
      H    4    0.46391      0.00000     0.52944    0.00666     0.53609
      O    5   -1.06533      1.99987     7.05932    0.00613     9.06533
      O    6   -1.00888      1.99988     7.00241    0.00659     9.00888
     Cl    7    0.02450      9.99994     6.96271    0.01285    16.97550
 =======================================================================
   * Total *   -1.00000     27.99885    37.80014    0.20101    66.00000

 Normal termination of Gaussian 09 at Wed Jun 21 05:32:41 2017.
 Gaussian 09:  AM64L-G09RevD.01 24-Apr-2013

 -------------------------------------------------
 # B3LYP/6-311G** geom=check guess=read output=wfx
 -------------------------------------------------

 -------------------
 Title Card Required
 -------------------
 Structure from the checkpoint file:  "H2ClPO4-A.chk"
 Charge = -1 Multiplicity = 1

                         Standard orientation:
 ---------------------------------------------------------------------
 Center     Atomic      Atomic             Coordinates (Angstroms)
 Number     Number       Type             X           Y           Z
 ---------------------------------------------------------------------
      1         15           0       -0.911614    0.017727   -0.124875
      2          8           0        0.643658    0.974521    0.090462
      3          8           0       -0.842117   -1.020789    1.283852
      4          1           0       -0.534029   -1.904964    1.016030
      5          8           0       -0.850579   -0.931787   -1.392295
      6          8           0       -1.915713    1.209497    0.141338
      7         17           0        2.230956   -0.012499   -0.007633
 ---------------------------------------------------------------------

 SCF Done:  E(RB3LYP) =  -1103.26013407     A.U. after    1 cycles

 The electronic state is 1-A.
 Alpha  occ. eigenvalues -- -101.43431 -77.01927 -19.02456 -18.97913 -18.92222
 Alpha  occ. eigenvalues --  -18.91328  -9.34410  -7.11146  -7.09816  -7.09784
 Alpha  occ. eigenvalues --   -6.49429  -4.65824  -4.65685  -4.65370  -0.86890
 Alpha  occ. eigenvalues --   -0.83104  -0.78071  -0.75202  -0.64468  -0.41520
 Alpha  occ. eigenvalues --   -0.33384  -0.28622  -0.25942  -0.24067  -0.22657
 Alpha  occ. eigenvalues --   -0.20245  -0.18651  -0.16217  -0.14656  -0.13709
 Alpha  occ. eigenvalues --   -0.12478  -0.11170  -0.10411
 Alpha virt. eigenvalues --    0.02922   0.16743   0.22242   0.24492   0.27626
 Alpha virt. eigenvalues --    0.29926   0.34016   0.37039   0.39668   0.42407
 Alpha virt. eigenvalues --    0.44156   0.46345   0.54678   0.56310   0.75257

 Mulliken charges:
               1
     1  P    1.217592
     2  O   -0.512390
     3  O   -0.591633
     4  H    0.262092
     5  O   -0.685359
     6  O   -0.638170
     7  Cl  -0.052133
 Sum of Mulliken charges =  -1.00000

 Dipole moment (field-independent basis, Debye):
    X=              3.2468    Y=             -2.5092    Z=              1.2861  Tot=              4.3002
 Quadrupole moment (field-independent basis, Debye-Ang):
   XX=            -62.8004   YY=            -53.6283   ZZ=            -58.6430
   XY=              1.4971   XZ=             -0.5028   YZ=             -4.1409

 Normal termination of Gaussian 09 at Wed Jun 21 05:32:48 2017.
