 Gaussian 09, Revision D.01,

 -----------------------------------------
 # opt freq b3lyp/6-311g geom=connectivity
 -----------------------------------------

 -------------------
 Title Card Required
 -------------------
 Symbolic Z-matrix:
 Charge =  0 Multiplicity = 1

 SCF Done:  E(RB3LYP) =  -819.552501393     A.U. after   16 cycles
 SCF Done:  E(RB3LYP) =  -819.591562120     A.U. after   15 cycles
 SCF Done:  E(RB3LYP) =  -819.612342995     A.U. after   16 cycles
 SCF Done:  E(RB3LYP) =  -819.625970820     A.U. after   15 cycles
 SCF Done:  E(RB3LYP) =  -819.630595150     A.U. after   15 cycles
 SCF Done:  E(RB3LYP) =  -819.633525283     A.U. after   13 cycles
 SCF Done:  E(RB3LYP) =  -819.634855340     A.U. after   13 cycles
 SCF Done:  E(RB3LYP) =  -819.635442853     A.U. after   14 cycles
 SCF Done:  E(RB3LYP) =  -819.635695849     A.U. after   13 cycles
 SCF Done:  E(RB3LYP) =  -819.635822668     A.U. after   13 cycles
 SCF Done:  E(RB3LYP) =  -819.639497154     A.U. after    9 cycles
 SCF Done:  E(RB3LYP) =  -819.639500849     A.U. after    9 cycles
 SCF Done:  E(RB3LYP) =  -819.639502248     A.U. after    9 cycles
 SCF Done:  E(RB3LYP) =  -819.639503010     A.U. after    8 cycles
 SCF Done:  E(RB3LYP) =  -819.639503277     A.U. after    8 cycles
 SCF Done:  E(RB3LYP) =  -819.639503358     A.U. after    7 cycles
 Optimization completed.
    -- Stationary point found.
 Normal termination of Gaussian 09 at Fri Jun 23 04:18:57 2017.

 ------------------------------------------------------------------
 #N Geom=AllCheck Guess=TCheck SCRF=Check GenChk RB3LYP/6-311G Freq
 ------------------------------------------------------------------

 Structure from the checkpoint file:  "H2FPO4-h2o.chk"
 -------------------
 Title Card Required
 -------------------
 Charge =  0 Multiplicity = 1

 SCF Done:  E(RB3LYP) =  -819.639503358     A.U. after    1 cycles

  Exact polarizability:  49.880   0.089  43.014  -0.112  -1.728  38.085
 Approx polarizability:  64.220  -5.733  63.619   4.734  -4.656  65.094

                      1                      2                      3
                      A                      A                      A
 Frequencies --     45.5580                84.2572               150.7275
 Red. masses --      6.2410                 7.3779                 4.4276
 Frc consts  --      0.0076                 0.0309                 0.0593
 IR Inten    --      7.3707                 4.1423                12.5256

                      4                      5                      6
                      A                      A                      A
 Frequencies --    170.8997               175.0087               218.7815
 Red. masses --      1.6566                 2.5507                 4.2128
 Frc consts  --      0.0285                 0.0460                 0.1188
 IR Inten    --    153.6082                73.8104                38.2607

                      7                      8                      9
                      A                      A                      A
 Frequencies --    262.3289               281.6740               317.7654
 Red. masses --      3.4703                 2.7388                 5.3531
 Frc consts  --      0.1407                 0.1280                 0.3185
 IR Inten    --     34.0329                67.5843                74.3803

                     10                     11                     12
                      A                      A                      A
 Frequencies --    377.0346               396.6185               402.3525
 Red. masses --     11.8024                 6.0044                 9.9400
 Frc consts  --      0.9885                 0.5565                 0.9481
 IR Inten    --     64.3970                 5.3568                19.4740

                     13                     14                     15
                      A                      A                      A
 Frequencies --    531.6158               545.9987               633.8275
 Red. masses --      1.0925                 1.1575                12.1412
 Frc consts  --      0.1819                 0.2033                 2.8738
 IR Inten    --    145.5827               166.9743                18.1691

                     16                     17                     18
                      A                      A                      A
 Frequencies --    727.0752               836.6451               873.9633
 Red. masses --     12.3035                15.2814                13.4267
 Frc consts  --      3.8321                 6.3023                 6.0423
 IR Inten    --    115.4136               135.9189                58.9390

                     19                     20                     21
                      A                      A                      A
 Frequencies --    913.8674              1038.5529              1346.9037
 Red. masses --      1.0899                16.6310                 1.1108
 Frc consts  --      0.5363                10.5688                 1.1873
 IR Inten    --    329.6829               134.7834                66.2936

                     22                     23                     24
                      A                      A                      A
 Frequencies --   1428.6535              1615.1390              2861.0040
 Red. masses --      1.1059                 1.0975                 1.0670
 Frc consts  --      1.3299                 1.6868                 5.1457
 IR Inten    --    194.0469               192.3948              1167.8696

                     25                     26                     27
                      A                      A                      A
 Frequencies --   3574.7673              3581.3380              3858.4859
 Red. masses --      1.0679                 1.0484                 1.0789
 Frc consts  --      8.0407                 7.9226                 9.4636
 IR Inten    --     61.9891               120.8299                89.7984

 - Thermochemistry -
 -------------------
 Temperature   298.150 Kelvin.  Pressure   1.00000 Atm.
 Atom     1 has atomic number 15 and mass  30.97376

 Molecular mass:   133.97804 amu.
 Principal axes and moments of inertia in atomic units:
                           1         2         3
     Eigenvalues --   729.676441167.613571447.72187
           X            0.99995   0.00633  -0.00778
           Y           -0.00647   0.99983  -0.01748
           Z            0.00767   0.01753   0.99982
 This molecule is an asymmetric top.
 Rotational symmetry number  1.
 Warning -- assumption of classical behavior for rotation
           may cause significant error
 Rotational temperatures (Kelvin)      0.11870     0.07418     0.05983
 Rotational constants (GHZ):           2.47334     1.54567     1.24661
 Zero-point vibrational energy     162996.2 (Joules/Mol)
                                   38.95704 (Kcal/Mol)
 Warning -- explicit consideration of  14 degrees of freedom as
           vibrations may cause significant error
 Vibrational temperatures:     65.55   121.23   216.86   245.89   251.80
          (Kelvin)            314.78   377.43   405.27   457.19   542.47
                              570.64   578.89   764.88   785.57   911.94
                             1046.10  1203.74  1257.44  1314.85  1494.24
                             1937.89  2055.51  2323.82  4116.34  5143.29
                             5152.74  5551.49

 Zero-point correction=                           0.062082 (Hartree/Particle)
 Thermal correction to Energy=                    0.072039
 Thermal correction to Enthalpy=                  0.072983
 Thermal correction to Gibbs Free Energy=         0.026756
 Sum of electronic and zero-point Energies=           -819.577421
 Sum of electronic and thermal Energies=              -819.567465
 Sum of electronic and thermal Enthalpies=            -819.566521
 Sum of electronic and thermal Free Energies=         -819.612747

                     E (Thermal)             CV                S
                      KCal/Mol        Cal/Mol-Kelvin    Cal/Mol-Kelvin
 Total                   45.205             33.205             97.292
 Electronic               0.000              0.000              0.000
 Translational            0.889              2.981             40.590
 Rotational               0.889              2.981             28.602
 Vibrational             43.427             27.243             28.100
 Vibration     1          0.595              1.979              5.001
 Vibration     2          0.601              1.960              3.789
 Vibration     3          0.618              1.902              2.663
 Vibration     4          0.626              1.878              2.426
 Vibration     5          0.627              1.873              2.381
 Vibration     6          0.647              1.812              1.969
 Vibration     7          0.670              1.742              1.646
 Vibration     8          0.681              1.708              1.523
 Vibration     9          0.704              1.640              1.322
 Vibration    10          0.748              1.519              1.051
 Vibration    11          0.763              1.477              0.975
 Vibration    12          0.768              1.465              0.954
 Vibration    13          0.887              1.180              0.584
 Vibration    14          0.901              1.148              0.553

 Normal termination of Gaussian 09 at Fri Jun 23 04:20:02 2017.

 ---------------------------------------------
 # B3LYP/6-311+G(2df,2p) geom=check guess=read
 ---------------------------------------------

 -------------------
 Title Card Required
 -------------------
 Structure from the checkpoint file:  "H2FPO4-h2o.chk"
 Charge =  0 Multiplicity = 1

 SCF Done:  E(RB3LYP) =  -819.949902002     A.U. after   13 cycles
 Normal termination of Gaussian 09 at Fri Jun 23 04:21:47 2017.

 --------------------------------------------------
 # B3LYP/6-311G** geom=check guess=read pop=nboread
 --------------------------------------------------

 -------------------
 Title Card Required
 -------------------
 Structure from the checkpoint file:  "H2FPO4-h2o.chk"
 Charge =  0 Multiplicity = 1

 SCF Done:  E(RB3LYP) =  -819.873899021     A.U. after   12 cycles

 Summary of Natural Population Analysis:

                                       Natural Population
                Natural  -----------------------------------------------
    Atom  No    Charge         Core      Valence    Rydberg      Total
 -----------------------------------------------------------------------
      P    1    2.37378      9.99927     2.49364    0.13331    12.62622
      F    2   -0.52728      1.99996     7.52415    0.00317     9.52728
      O    3   -0.51088      1.99988     6.50086    0.01013     8.51088
      O    4   -0.96087      1.99978     6.95393    0.00715     8.96087
      H    5    0.53420      0.00000     0.45861    0.00718     0.46580
      O    6   -1.01553      1.99984     7.00871    0.00698     9.01553
      O    7   -0.40940      1.99984     6.39843    0.01113     8.40940
      H    8    0.46332      0.00000     0.53082    0.00586     0.53668
      O    9   -0.94417      1.99977     6.93573    0.00868     8.94417
      H   10    0.51213      0.00000     0.48154    0.00633     0.48787
      H   11    0.48469      0.00000     0.51061    0.00469     0.51531
 =======================================================================
   * Total *    0.00000     21.99834    45.79705    0.20461    68.00000

 Normal termination of Gaussian 09 at Fri Jun 23 04:23:29 2017.
 Gaussian 09:  AM64L-G09RevD.01 24-Apr-2013

 -------------------------------------------------
 # B3LYP/6-311G** geom=check guess=read output=wfx
 -------------------------------------------------

 -------------------
 Title Card Required
 -------------------
 Structure from the checkpoint file:  "H2FPO4-h2o.chk"
 Charge =  0 Multiplicity = 1

                         Standard orientation:
 ---------------------------------------------------------------------
 Center     Atomic      Atomic             Coordinates (Angstroms)
 Number     Number       Type             X           Y           Z
 ---------------------------------------------------------------------
      1         15           0        0.197978   -0.382338   -0.098538
      2          9           0        0.738308   -1.975790    0.033633
      3          8           0        1.793788    0.273491    0.164124
      4          8           0       -0.663497   -0.126480    1.280656
      5          1           0       -1.612113    0.190879    1.070056
      6          8           0       -0.521695   -0.033885   -1.445545
      7          8           0        1.620646    1.780188    0.116422
      8          1           0        2.220999    1.986200   -0.633278
      9          8           0       -2.750082    0.595233    0.066501
     10          1           0       -2.392081    0.538121   -0.840817
     11          1           0       -3.664524    0.893612    0.122136
 ---------------------------------------------------------------------

 SCF Done:  E(RB3LYP) =  -819.873899021     A.U. after    1 cycles

 The electronic state is 1-A.
 Alpha  occ. eigenvalues --  -77.25455 -24.70081 -19.22974 -19.21518 -19.16921
 Alpha  occ. eigenvalues --  -19.15475 -19.12988  -6.72826  -4.89201  -4.89026
 Alpha  occ. eigenvalues --   -4.88863  -1.21490  -1.13014  -1.06435  -1.03885
 Alpha  occ. eigenvalues --   -0.98412  -0.93604  -0.64844  -0.58848  -0.56530
 Alpha  occ. eigenvalues --   -0.53323  -0.52258  -0.48978  -0.46434  -0.44723
 Alpha  occ. eigenvalues --   -0.44043  -0.41761  -0.39691  -0.38525  -0.36448
 Alpha  occ. eigenvalues --   -0.34976  -0.33895  -0.33062  -0.31563
 Alpha virt. eigenvalues --   -0.07413  -0.02685   0.01809   0.02914   0.04773
 Alpha virt. eigenvalues --    0.07369   0.09310   0.12330   0.16615   0.18862
 Alpha virt. eigenvalues --    0.21278   0.21915   0.31293   0.34697   0.36620

 Mulliken charges:
               1
     1  P    1.375082
     2  F   -0.353266
     3  O   -0.343665
     4  O   -0.548477
     5  H    0.361738
     6  O   -0.608780
     7  O   -0.232761
     8  H    0.295332
     9  O   -0.542761
    10  H    0.310011
    11  H    0.287547
 Sum of Mulliken charges =   0.00000

 Dipole moment (field-independent basis, Debye):
    X=             -2.4035    Y=              2.5614    Z=             -0.8821  Tot=              3.6215
 Quadrupole moment (field-independent basis, Debye-Ang):
   XX=            -30.2657   YY=            -46.2429   ZZ=            -51.0141
   XY=              0.5664   XZ=             -3.5212   YZ=             -2.7866

 Normal termination of Gaussian 09 at Fri Jun 23 04:23:48 2017.
