 Gaussian 09, Revision D.01,

 -----------------------------------------
 # opt freq b3lyp/6-311g geom=connectivity
 -----------------------------------------

 -------------------
 Title Card Required
 -------------------
 Symbolic Z-matrix:
 Charge = -1 Multiplicity = 1

 SCF Done:  E(RB3LYP) =  -742.633331761     A.U. after   16 cycles
 SCF Done:  E(RB3LYP) =  -742.674538325     A.U. after   15 cycles
 SCF Done:  E(RB3LYP) =  -742.690814648     A.U. after   16 cycles
 SCF Done:  E(RB3LYP) =  -742.692884681     A.U. after   14 cycles
 SCF Done:  E(RB3LYP) =  -742.694172306     A.U. after   16 cycles
 SCF Done:  E(RB3LYP) =  -742.694261522     A.U. after   14 cycles
 SCF Done:  E(RB3LYP) =  -742.695740444     A.U. after   13 cycles
 SCF Done:  E(RB3LYP) =  -742.696470829     A.U. after   15 cycles
 SCF Done:  E(RB3LYP) =  -742.696685333     A.U. after   13 cycles
 SCF Done:  E(RB3LYP) =  -742.697011650     A.U. after   13 cycles
 SCF Done:  E(RB3LYP) =  -742.698095478     A.U. after   12 cycles
 SCF Done:  E(RB3LYP) =  -742.698254040     A.U. after   13 cycles
 SCF Done:  E(RB3LYP) =  -742.698411560     A.U. after   13 cycles
 SCF Done:  E(RB3LYP) =  -742.698494325     A.U. after   13 cycles
 SCF Done:  E(RB3LYP) =  -742.698504197     A.U. after    9 cycles
 SCF Done:  E(RB3LYP) =  -742.698507267     A.U. after   10 cycles
 Optimization completed.
    -- Stationary point found.
 Normal termination of Gaussian 09 at Fri Jun 23 03:56:55 2017.

 ------------------------------------------------------------------
 #N Geom=AllCheck Guess=TCheck SCRF=Check GenChk RB3LYP/6-311G Freq
 ------------------------------------------------------------------

 Structure from the checkpoint file:  "H2FPO4-A.chk"
 -------------------
 Title Card Required
 -------------------
 Charge = -1 Multiplicity = 1

 SCF Done:  E(RB3LYP) =  -742.698507267     A.U. after    1 cycles

  Exact polarizability:  49.991  -6.374  31.019  -2.356   3.272  32.109
 Approx polarizability:  80.855 -19.247  52.837  -7.664  10.405  54.338

                      1                      2                      3
                      A                      A                      A
 Frequencies --     93.1028               205.3365               254.0670
 Red. masses --     14.7663                14.0956                15.0075
 Frc consts  --      0.0754                 0.3502                 0.5708
 IR Inten    --      1.7906                 3.0554                 2.4429

                      4                      5                      6
                      A                      A                      A
 Frequencies --    299.6797               351.6731               373.5295
 Red. masses --      9.4338                11.3314                13.2711
 Frc consts  --      0.4992                 0.8257                 1.0910
 IR Inten    --     24.4708                11.0411                21.3921

                      7                      8                      9
                      A                      A                      A
 Frequencies --    465.7329               576.7637               604.9301
 Red. masses --     10.8001                 1.5296                 5.7150
 Frc consts  --      1.3802                 0.2998                 1.2322
 IR Inten    --     45.9076                76.4712                64.3264

                     10                     11                     12
                      A                      A                      A
 Frequencies --    659.7159               840.1830               877.4266
 Red. masses --      6.5312                14.2485                18.5706
 Frc consts  --      1.6748                 5.9261                 8.4236
 IR Inten    --    315.7715                 5.8386               111.5499

                     13                     14                     15
                      A                      A                      A
 Frequencies --   1081.3872              1494.4209              3179.6749
 Red. masses --     18.2643                 1.0883                 1.0677
 Frc consts  --     12.5839                 1.4320                 6.3598
 IR Inten    --    173.2966                94.0324                64.6139

 - Thermochemistry -
 -------------------
 Temperature   298.150 Kelvin.  Pressure   1.00000 Atm.
 Atom     1 has atomic number 15 and mass  30.97376

 Molecular mass:   114.95965 amu.
 Principal axes and moments of inertia in atomic units:
                           1         2         3
     Eigenvalues --   443.39325 787.37984 804.69346
           X            0.99986  -0.01326  -0.01043
           Y            0.01572   0.95701   0.28962
           Z            0.00614  -0.28974   0.95709
 This molecule is an asymmetric top.
 Rotational symmetry number  1.
 Warning -- assumption of classical behavior for rotation
           may cause significant error
 Rotational temperatures (Kelvin)      0.19534     0.11000     0.10764
 Rotational constants (GHZ):           4.07029     2.29208     2.24277
 Zero-point vibrational energy      67933.7 (Joules/Mol)
                                   16.23654 (Kcal/Mol)
 Warning -- explicit consideration of   9 degrees of freedom as
           vibrations may cause significant error
 Vibrational temperatures:    133.95   295.43   365.55   431.17   505.98
          (Kelvin)            537.42   670.08   829.83   870.36   949.18
                             1208.83  1262.42  1555.87  2150.14  4574.84

 Zero-point correction=                           0.025875 (Hartree/Particle)
 Thermal correction to Energy=                    0.032474
 Thermal correction to Enthalpy=                  0.033418
 Thermal correction to Gibbs Free Energy=        -0.004943
 Sum of electronic and zero-point Energies=           -742.672633
 Sum of electronic and thermal Energies=              -742.666034
 Sum of electronic and thermal Enthalpies=            -742.665089
 Sum of electronic and thermal Free Energies=         -742.703451

                     E (Thermal)             CV                S
                      KCal/Mol        Cal/Mol-Kelvin    Cal/Mol-Kelvin
 Total                   20.377             22.105             80.738
 Electronic               0.000              0.000              0.000
 Translational            0.889              2.981             40.134
 Rotational               0.889              2.981             27.132
 Vibrational             18.600             16.143             13.472
 Vibration     1          0.602              1.954              3.594
 Vibration     2          0.640              1.832              2.085
 Vibration     3          0.665              1.756              1.702
 Vibration     4          0.692              1.674              1.419
 Vibration     5          0.728              1.572              1.159
 Vibration     6          0.745              1.526              1.065
 Vibration     7          0.823              1.326              0.750
 Vibration     8          0.933              1.082              0.491
 Vibration     9          0.963              1.021              0.441

 Optimization completed.
    -- Stationary point found.
 Normal termination of Gaussian 09 at Fri Jun 23 03:57:19 2017.

 ---------------------------------------------
 # B3LYP/6-311+G(2df,2p) geom=check guess=read
 ---------------------------------------------

 -------------------
 Title Card Required
 -------------------
 Structure from the checkpoint file:  "H2FPO4-A.chk"
 Charge = -1 Multiplicity = 1

 SCF Done:  E(RB3LYP) =  -742.968087293     A.U. after   13 cycles
 Normal termination of Gaussian 09 at Fri Jun 23 03:57:40 2017.

 --------------------------------------------------
 # B3LYP/6-311G** geom=check guess=read pop=nboread
 --------------------------------------------------

 -------------------
 Title Card Required
 -------------------
 Structure from the checkpoint file:  "H2FPO4-A.chk"
 Charge = -1 Multiplicity = 1

 SCF Done:  E(RB3LYP) =  -742.892472200     A.U. after   12 cycles

 Summary of Natural Population Analysis:

                                       Natural Population
                Natural  -----------------------------------------------
    Atom  No    Charge         Core      Valence    Rydberg      Total
 -----------------------------------------------------------------------
      P    1    2.27371      9.99932     2.57701    0.14996    12.72629
      F    2   -0.58856      1.99997     7.58584    0.00275     9.58856
      O    3   -0.55102      1.99991     6.54061    0.01050     8.55102
      O    4   -1.03205      1.99987     7.02567    0.00652     9.03205
      O    5   -1.09000      1.99986     7.08378    0.00636     9.09000
      O    6   -0.47196      1.99984     6.46150    0.01062     8.47196
      H    7    0.45988      0.00000     0.52987    0.01025     0.54012
 =======================================================================
   * Total *   -1.00000     19.99877    37.80428    0.19695    58.00000

 Normal termination of Gaussian 09 at Fri Jun 23 03:57:50 2017.
 Gaussian 09:  AM64L-G09RevD.01 24-Apr-2013

 -------------------------------------------------
 # B3LYP/6-311G** geom=check guess=read output=wfx
 -------------------------------------------------

 -------------------
 Title Card Required
 -------------------
 Structure from the checkpoint file:  "H2FPO4-A.chk"
 Charge = -1 Multiplicity = 1

                         Standard orientation:
 ---------------------------------------------------------------------
 Center     Atomic      Atomic             Coordinates (Angstroms)
 Number     Number       Type             X           Y           Z
 ---------------------------------------------------------------------
      1         15           0       -0.482619    0.066149   -0.152556
      2          9           0       -0.872119   -1.269461    0.903928
      3          8           0        0.950785    0.739616    0.716997
      4          8           0       -1.656284    1.107240   -0.060230
      5          8           0        0.166309   -0.554641   -1.470046
      6          8           0        2.194117    0.044257    0.172315
      7          1           0        1.848941   -0.258864   -0.719292
 ---------------------------------------------------------------------

 SCF Done:  E(RB3LYP) =  -742.892472200     A.U. after    1 cycles

 The electronic state is 1-A.
 Alpha  occ. eigenvalues --  -77.03309 -24.48942 -19.01843 -19.00493 -18.92954
 Alpha  occ. eigenvalues --  -18.92817  -6.50772  -4.67176  -4.67033  -4.66700
 Alpha  occ. eigenvalues --   -0.99801  -0.91658  -0.80459  -0.76575  -0.71914
 Alpha  occ. eigenvalues --   -0.41243  -0.35471  -0.28496  -0.27734  -0.26404
 Alpha  occ. eigenvalues --   -0.25340  -0.22544  -0.21012  -0.19704  -0.15464
 Alpha  occ. eigenvalues --   -0.14472  -0.12604  -0.11672  -0.10552
 Alpha virt. eigenvalues --    0.12427   0.16990   0.23907   0.24768   0.27661
 Alpha virt. eigenvalues --    0.30232   0.34668   0.36754   0.44780   0.52183
 Alpha virt. eigenvalues --    0.54881   0.75616   0.77083   0.87732   0.89177

 Mulliken charges:
               1
     1  P    1.255554
     2  F   -0.444861
     3  O   -0.410860
     4  O   -0.643430
     5  O   -0.711761
     6  O   -0.305483
     7  H    0.260842
 Sum of Mulliken charges =  -1.00000

 Dipole moment (field-independent basis, Debye):
    X=              1.0778    Y=             -0.8095    Z=             -0.0012  Tot=              1.3479
 Quadrupole moment (field-independent basis, Debye-Ang):
   XX=            -53.4672   YY=            -48.3131   ZZ=            -48.2088
   XY=              1.5283   XZ=             -1.9895   YZ=             -0.8363

 Normal termination of Gaussian 09 at Fri Jun 23 03:57:53 2017.
