 Gaussian 09, Revision D.01,

 -------------------------------------------
 # B3LYP/6-311G** opt freq geom=connectivity
 -------------------------------------------

 -------------------
 Title Card Required
 -------------------
 Symbolic Z-matrix:
 Charge =  0 Multiplicity = 1

 SCF Done:  E(RB3LYP) =  -644.195290393     A.U. after   16 cycles
 SCF Done:  E(RB3LYP) =  -644.243994385     A.U. after   13 cycles
 SCF Done:  E(RB3LYP) =  -644.262107456     A.U. after   13 cycles
 SCF Done:  E(RB3LYP) =  -644.267904567     A.U. after   12 cycles
 SCF Done:  E(RB3LYP) =  -644.268591593     A.U. after   11 cycles
 SCF Done:  E(RB3LYP) =  -644.268820462     A.U. after   10 cycles
 SCF Done:  E(RB3LYP) =  -644.269042054     A.U. after   10 cycles
 SCF Done:  E(RB3LYP) =  -644.269115551     A.U. after   10 cycles
 SCF Done:  E(RB3LYP) =  -644.269133785     A.U. after    8 cycles
 SCF Done:  E(RB3LYP) =  -644.269137693     A.U. after    8 cycles
 SCF Done:  E(RB3LYP) =  -644.269157114     A.U. after    7 cycles
 SCF Done:  E(RB3LYP) =  -644.269160529     A.U. after    8 cycles
 SCF Done:  E(RB3LYP) =  -644.269160143     A.U. after    8 cycles
 SCF Done:  E(RB3LYP) =  -644.269156535     A.U. after    7 cycles
 SCF Done:  E(RB3LYP) =  -644.269159225     A.U. after    7 cycles
 SCF Done:  E(RB3LYP) =  -644.269156620     A.U. after    7 cycles
 Optimization completed.
    -- Stationary point found.
 Normal termination of Gaussian 09 at Tue Jun 20 05:58:58 2017.

 ----------------------------------------------------------------------
 #N Geom=AllCheck Guess=TCheck SCRF=Check GenChk RB3LYP/6-311G(d,p) Fre
 q
 ----------------------------------------------------------------------

 Structure from the checkpoint file:  "H3PO42.chk"
 -------------------
 Title Card Required
 -------------------
 Charge =  0 Multiplicity = 1

 SCF Done:  E(RB3LYP) =  -644.269156620     A.U. after    1 cycles

  Exact polarizability:  30.367  -0.001  30.355   0.001   0.002  29.086
 Approx polarizability:  38.835   0.001  38.820   0.014   0.025  45.025

                      1                      2                      3
                      A                      A                      A
 Frequencies --    178.2670               180.7868               315.8444
 Red. masses --      1.3784                 1.3864                 1.1895
 Frc consts  --      0.0258                 0.0267                 0.0699
 IR Inten    --     76.4634                76.5224               115.5695

                      4                      5                      6
                      A                      A                      A
 Frequencies --    375.4350               376.0628               450.2342
 Red. masses --      2.7635                 2.7278                 7.9736
 Frc consts  --      0.2295                 0.2273                 0.9523
 IR Inten    --     39.7388                40.5763                81.9124

                      7                      8                      9
                      A                      A                      A
 Frequencies --    450.4864               458.4431               822.9882
 Red. masses --      8.0054                 4.7307                10.0031
 Frc consts  --      0.9572                 0.5858                 3.9918
 IR Inten    --     82.1980                34.0195                19.8754

                     10                     11                     12
                      A                      A                      A
 Frequencies --    907.1879               907.7639              1028.1495
 Red. masses --      4.8016                 4.8216                 1.1793
 Frc consts  --      2.3283                 2.3409                 0.7345
 IR Inten    --    344.3637               344.8431                91.0502

                     13                     14                     15
                      A                      A                      A
 Frequencies --   1041.2757              1041.8643              1309.8907
 Red. masses --      1.4315                 1.4294                15.9024
 Frc consts  --      0.9145                 0.9142                16.0762
 IR Inten    --     67.3695                67.2308               285.6298

                     16                     17                     18
                      A                      A                      A
 Frequencies --   3839.7358              3839.8396              3842.5047
 Red. masses --      1.0655                 1.0655                 1.0670
 Frc consts  --      9.2554                 9.2559                 9.2818
 IR Inten    --    166.3691               166.6841                21.4119

 - Thermochemistry -
 -------------------
 Temperature   298.150 Kelvin.  Pressure   1.00000 Atm.
 Atom     1 has atomic number 15 and mass  30.97376

 Molecular mass:    97.97690 amu.
 Principal axes and moments of inertia in atomic units:
                           1         2         3
     Eigenvalues --   404.66326 408.60342 408.64594
           X            0.00718   0.99750  -0.07025
           Y            0.01298   0.07016   0.99745
           Z            0.99989  -0.00808  -0.01244
 This molecule is an asymmetric top.
 Rotational symmetry number  1.
 Rotational temperatures (Kelvin)      0.21404     0.21198     0.21195
 Rotational constants (GHZ):           4.45986     4.41685     4.41639
 Zero-point vibrational energy     127801.6 (Joules/Mol)
                                   30.54532 (Kcal/Mol)
 Warning -- explicit consideration of   8 degrees of freedom as
           vibrations may cause significant error
 Vibrational temperatures:    256.49   260.11   454.43   540.17   541.07
          (Kelvin)            647.79   648.15   659.60  1184.09  1305.24
                             1306.07  1479.28  1498.16  1499.01  1884.64
                             5524.52  5524.67  5528.50

 Zero-point correction=                           0.048677 (Hartree/Particle)
 Thermal correction to Energy=                    0.054832
 Thermal correction to Enthalpy=                  0.055776
 Thermal correction to Gibbs Free Energy=         0.019394
 Sum of electronic and zero-point Energies=           -644.220480
 Sum of electronic and thermal Energies=              -644.214325
 Sum of electronic and thermal Enthalpies=            -644.213380
 Sum of electronic and thermal Free Energies=         -644.249762

                     E (Thermal)             CV                S
                      KCal/Mol        Cal/Mol-Kelvin    Cal/Mol-Kelvin
 Total                   34.408             21.198             76.572
 Electronic               0.000              0.000              0.000
 Translational            0.889              2.981             39.657
 Rotational               0.889              2.981             25.716
 Vibrational             32.630             15.236             11.199
 Vibration     1          0.629              1.869              2.346
 Vibration     2          0.630              1.866              2.320
 Vibration     3          0.703              1.643              1.332
 Vibration     4          0.746              1.522              1.058
 Vibration     5          0.747              1.521              1.055
 Vibration     6          0.809              1.360              0.795
 Vibration     7          0.809              1.360              0.794
 Vibration     8          0.816              1.342              0.771

 Normal termination of Gaussian 09 at Tue Jun 20 05:59:46 2017.

 ---------------------------------------------
 # B3LYP/6-311+G(2df,2p) geom=check guess=read
 ---------------------------------------------

 -------------------
 Title Card Required
 -------------------
 Structure from the checkpoint file:  "H3PO42.chk"
 Charge =  0 Multiplicity = 1

 SCF Done:  E(RB3LYP) =  -644.336388531     A.U. after   10 cycles
 Normal termination of Gaussian 09 at Tue Jun 20 06:00:17 2017.

 --------------------------------------------------
 # B3LYP/6-311G** geom=check guess=read pop=nboread
 --------------------------------------------------

 -------------------
 Title Card Required
 -------------------
 Structure from the checkpoint file:  "H3PO42.chk"
 Charge =  0 Multiplicity = 1

 SCF Done:  E(RB3LYP) =  -644.269156620     A.U. after   10 cycles

 Summary of Natural Population Analysis:

                                       Natural Population
                Natural  -----------------------------------------------
    Atom  No    Charge         Core      Valence    Rydberg      Total
 -----------------------------------------------------------------------
      P    1    2.43003      9.99930     2.40028    0.17038    12.56997
      O    2   -1.04951      1.99979     7.04178    0.00794     9.04951
      O    3   -0.95946      1.99976     6.95036    0.00934     8.95946
      H    4    0.49931      0.00000     0.49560    0.00508     0.50069
      O    5   -0.95945      1.99976     6.95035    0.00934     8.95945
      H    6    0.49927      0.00000     0.49565    0.00508     0.50073
      O    7   -0.95947      1.99976     6.95036    0.00934     8.95947
      H    8    0.49928      0.00000     0.49563    0.00509     0.50072
 =======================================================================
   * Total *    0.00000     17.99838    31.78002    0.22160    50.00000

 1\1\GINC-TITANIO\SP\RB3LYP\6-311G(d,p)\H3O4P1\SARARIOP\20-Jun-2017\0\\
 # B3LYP/6-311G** geom=check guess=read pop=nboread\\Title Card Require
 d\\0,1\P,0,-0.9567066154,-0.6715443489,-1.1929946177\O,0,-0.4953027667
 ,0.0025719163,-2.4196132784\O,0,-0.4352799626,-0.0559557185,0.19378609
 4\H,0,0.4754796365,0.2543346519,0.1317553923\O,0,-0.5576070485,-2.2180
 666078,-1.0404348659\H,0,-0.5905628571,-2.6844328587,-1.8836701383\O,0
 ,-2.5437472263,-0.7139587057,-0.961534234\H,0,-2.9729485599,0.09861256
 15,-1.2533605519\\Version=AM64L-G09RevD.01\State=1-A\HF=-644.2691566\R

 Normal termination of Gaussian 09 at Tue Jun 20 06:01:22 2017.
 Gaussian 09:  AM64L-G09RevD.01 24-Apr-2013

 ------------------------------------------------
 #B3LYP/6-311G** geom=check guess=read output=wfx
 ------------------------------------------------

 -------------------
 Title Card Required
 -------------------
 Structure from the checkpoint file:  "H3PO42.chk"
 Charge =  0 Multiplicity = 1

                         Standard orientation:
 ---------------------------------------------------------------------
 Center     Atomic      Atomic             Coordinates (Angstroms)
 Number     Number       Type             X           Y           Z
 ---------------------------------------------------------------------
      1         15           0        0.000062    0.000311    0.118456
      2          8           0        0.002132    0.004408    1.592193
      3          8           0       -1.360819    0.468928   -0.590345
      4          1           0       -2.140746    0.168410   -0.109707
      5          8           0        0.271641   -1.414700   -0.587428
      6          1           0        0.925107   -1.937602   -0.108695
      7          8           0        1.086749    0.940903   -0.594613
      8          1           0        1.217085    1.768215   -0.116894
 ---------------------------------------------------------------------

 SCF Done:  E(RB3LYP) =  -644.269156620     A.U. after    1 cycles

 The electronic state is 1-A.
 Alpha  occ. eigenvalues --  -77.20715 -19.16840 -19.16838 -19.16838 -19.08943
 Alpha  occ. eigenvalues --   -6.68804  -4.85029  -4.85029  -4.84855  -1.12048
 Alpha  occ. eigenvalues --   -1.05596  -1.05594  -0.97992  -0.67589  -0.57276
 Alpha  occ. eigenvalues --   -0.57272  -0.48499  -0.44495  -0.44493  -0.39084
 Alpha  occ. eigenvalues --   -0.39078  -0.38424  -0.35830  -0.31075  -0.31074
 Alpha virt. eigenvalues --   -0.00350   0.04142   0.04145   0.11396   0.13143
 Alpha virt. eigenvalues --    0.13147   0.15437   0.20731   0.20735   0.22890
 Alpha virt. eigenvalues --    0.36246   0.36615   0.36628   0.43332   0.60557

 Mulliken charges:
               1
     1  P    1.159482
     2  O   -0.582055
     3  O   -0.502837
     4  H    0.310406
     5  O   -0.502848
     6  H    0.310349
     7  O   -0.502844
     8  H    0.310347
 Sum of Mulliken charges =   0.00000

 Dipole moment (field-independent basis, Debye):
    X=              0.0023    Y=             -0.0008    Z=             -0.1926  Tot=              0.1926
 Quadrupole moment (field-independent basis, Debye-Ang):
   XX=            -28.7384   YY=            -28.7637   ZZ=            -45.0676
   XY=             -0.0022   XZ=             -0.0199   YZ=             -0.0365

 Normal termination of Gaussian 09 at Tue Jun 20 06:01:29 2017.
