 Gaussian 09, Revision D.01,

 ----------------------------------------------
 # opt freq b3lyp/6-311g(d,p) geom=connectivity
 ----------------------------------------------

 -------------------
 Title Card Required
 -------------------
 Symbolic Z-matrix:
 Charge = -1 Multiplicity = 1

 SCF Done:  E(RB3LYP) =  -643.646278784     A.U. after   17 cycles
 SCF Done:  E(RB3LYP) =  -643.696712683     A.U. after   13 cycles
 SCF Done:  E(RB3LYP) =  -643.719519986     A.U. after   13 cycles
 SCF Done:  E(RB3LYP) =  -643.724111871     A.U. after   13 cycles
 SCF Done:  E(RB3LYP) =  -643.724675628     A.U. after   11 cycles
 SCF Done:  E(RB3LYP) =  -643.724764325     A.U. after    9 cycles
 SCF Done:  E(RB3LYP) =  -643.724822904     A.U. after   11 cycles
 SCF Done:  E(RB3LYP) =  -643.724908689     A.U. after   11 cycles
 SCF Done:  E(RB3LYP) =  -643.724958256     A.U. after   11 cycles
 SCF Done:  E(RB3LYP) =  -643.724994935     A.U. after   12 cycles
 SCF Done:  E(RB3LYP) =  -643.726089781     A.U. after   10 cycles
 SCF Done:  E(RB3LYP) =  -643.726150755     A.U. after   12 cycles
 SCF Done:  E(RB3LYP) =  -643.726175493     A.U. after   12 cycles
 SCF Done:  E(RB3LYP) =  -643.726194486     A.U. after   11 cycles
 SCF Done:  E(RB3LYP) =  -643.726184747     A.U. after   11 cycles
 SCF Done:  E(RB3LYP) =  -643.726184720     A.U. after    9 cycles
 Optimization completed.
    -- Stationary point found.
 Normal termination of Gaussian 09 at Tue Jun 20 23:41:16 2017.

 ----------------------------------------------------------------------
 #N Geom=AllCheck Guess=TCheck SCRF=Check GenChk RB3LYP/6-311G(d,p) Fre
 q
 ----------------------------------------------------------------------

 Structure from the checkpoint file:  "H3PO42-A.chk"
 -------------------
 Title Card Required
 -------------------
 Charge = -1 Multiplicity = 1

 SCF Done:  E(RB3LYP) =  -643.726184720     A.U. after    1 cycles

  Exact polarizability:  31.481   0.015  34.925  -0.003  -0.544  27.953
 Approx polarizability:  38.996   0.053  51.855  -0.019  -4.122  39.468

                      1                      2                      3
                      A                      A                      A
 Frequencies --    121.9413               294.6966               315.7152
 Red. masses --      1.2869                 1.4919                 3.1788
 Frc consts  --      0.0113                 0.0763                 0.1867
 IR Inten    --     30.1914                74.6560                29.2294

                      4                      5                      6
                      A                      A                      A
 Frequencies --    362.1859               426.1748               488.3240
 Red. masses --      3.6754                 4.4960                11.1933
 Frc consts  --      0.2841                 0.4811                 1.5726
 IR Inten    --     26.5705                14.2260                53.1719

                      7                      8                      9
                      A                      A                      A
 Frequencies --    488.5467               744.9914               783.5098
 Red. masses --     11.9625                12.6758                18.5397
 Frc consts  --      1.6822                 4.1450                 6.7057
 IR Inten    --     63.0610               113.0439               376.8318

                     10                     11                     12
                      A                      A                      A
 Frequencies --   1031.1463              1043.2171              1095.8471
 Red. masses --      1.1339                 1.9663                 3.3328
 Frc consts  --      0.7103                 1.2608                 2.3581
 IR Inten    --    101.7391                12.7995               257.7488

                     13                     14                     15
                      A                      A                      A
 Frequencies --   1321.3595              3843.5933              3845.4370
 Red. masses --      7.8009                 1.0649                 1.0652
 Frc consts  --      8.0249                 9.2692                 9.2805
 IR Inten    --    284.8815                14.9592                34.6693

 - Thermochemistry -
 -------------------
 Temperature   298.150 Kelvin.  Pressure   1.00000 Atm.
 Atom     1 has atomic number 15 and mass  30.97376

 Molecular mass:    96.96907 amu.
 Principal axes and moments of inertia in atomic units:
                           1         2         3
     Eigenvalues --   390.38796 392.24598 421.87000
           X            0.01990   0.99980   0.00031
           Y            0.99329  -0.01981   0.11397
           Z           -0.11396   0.00196   0.99348
 This molecule is an asymmetric top.
 Rotational symmetry number  1.
 Rotational temperatures (Kelvin)      0.22187     0.22082     0.20531
 Rotational constants (GHZ):           4.62294     4.60104     4.27796
 Zero-point vibrational energy      96937.5 (Joules/Mol)
                                   23.16862 (Kcal/Mol)
 Warning -- explicit consideration of   7 degrees of freedom as
           vibrations may cause significant error
 Vibrational temperatures:    175.45   424.00   454.24   521.10   613.17
          (Kelvin)            702.59   702.91  1071.88  1127.29  1483.59
                             1500.95  1576.68  1901.14  5530.07  5532.72

 Zero-point correction=                           0.036922 (Hartree/Particle)
 Thermal correction to Energy=                    0.042652
 Thermal correction to Enthalpy=                  0.043596
 Thermal correction to Gibbs Free Energy=         0.007851
 Sum of electronic and zero-point Energies=           -643.689263
 Sum of electronic and thermal Energies=              -643.683533
 Sum of electronic and thermal Enthalpies=            -643.682588
 Sum of electronic and thermal Free Energies=         -643.718334

                     E (Thermal)             CV                S
                      KCal/Mol        Cal/Mol-Kelvin    Cal/Mol-Kelvin
 Total                   26.765             19.257             75.233
 Electronic               0.000              0.000              0.000
 Translational            0.889              2.981             39.626
 Rotational               0.889              2.981             25.672
 Vibrational             24.987             13.295              9.935
 Vibration     1          0.609              1.931              3.069
 Vibration     2          0.689              1.684              1.447
 Vibration     3          0.703              1.644              1.332
 Vibration     4          0.736              1.550              1.113
 Vibration     5          0.788              1.413              0.871
 Vibration     6          0.844              1.276              0.688
 Vibration     7          0.844              1.275              0.687

 Optimization completed.
    -- Stationary point found.
 Normal termination of Gaussian 09 at Tue Jun 20 23:42:12 2017.

 ---------------------------------------------
 # B3LYP/6-311+G(2df,2p) geom=check guess=read
 ---------------------------------------------

 -------------------
 Title Card Required
 -------------------
 Structure from the checkpoint file:  "H3PO42-A.chk"
 Charge = -1 Multiplicity = 1

 SCF Done:  E(RB3LYP) =  -643.802594104     A.U. after   11 cycles
 Normal termination of Gaussian 09 at Tue Jun 20 23:42:50 2017.

 --------------------------------------------------
 # B3LYP/6-311G** geom=check guess=read pop=nboread
 --------------------------------------------------

 -------------------
 Title Card Required
 -------------------
 Structure from the checkpoint file:  "H3PO42-A.chk"
 Charge = -1 Multiplicity = 1

 SCF Done:  E(RB3LYP) =  -643.726184720     A.U. after   11 cycles

 Summary of Natural Population Analysis:

                                       Natural Population
                Natural  -----------------------------------------------
    Atom  No    Charge         Core      Valence    Rydberg      Total
 -----------------------------------------------------------------------
      P    1    2.38677      9.99940     2.43157    0.18227    12.61323
      O    2   -1.17661      1.99982     7.17004    0.00674     9.17661
      O    3   -0.99979      1.99981     6.98958    0.01040     8.99979
      H    4    0.45359      0.00000     0.53856    0.00784     0.54641
      O    5   -0.99975      1.99981     6.98954    0.01040     8.99975
      H    6    0.45359      0.00000     0.53857    0.00784     0.54641
      O    7   -1.11780      1.99981     7.11064    0.00735     9.11780
 =======================================================================
   * Total *   -1.00000     17.99866    31.76851    0.23284    50.00000

 Normal termination of Gaussian 09 at Tue Jun 20 23:43:50 2017.
 Gaussian 09:  AM64L-G09RevD.01 24-Apr-2013

 ------------------------------------------------
 #B3LYP/6-311G** geom=check guess=read output=wfx
 ------------------------------------------------

 -------------------
 Title Card Required
 -------------------
 Structure from the checkpoint file:  "H3PO42-A.chk"
 Charge = -1 Multiplicity = 1

                         Standard orientation:
 ---------------------------------------------------------------------
 Center     Atomic      Atomic             Coordinates (Angstroms)
 Number     Number       Type             X           Y           Z
 ---------------------------------------------------------------------
      1         15           0        0.000428    0.114019    0.130615
      2          8           0       -0.003811   -0.853819    1.288493
      3          8           0       -1.295136   -0.331102   -0.834250
      4          1           0       -1.614618   -1.145019   -0.432799
      5          8           0        1.293278   -0.340611   -0.833218
      6          1           0        1.605440   -1.157961   -0.432961
      7          8           0        0.006014    1.599619    0.242293
 ---------------------------------------------------------------------

 SCF Done:  E(RB3LYP) =  -643.726184720     A.U. after    1 cycles

 The electronic state is 1-A.
 Alpha  occ. eigenvalues --  -76.95643 -18.94153 -18.94150 -18.86189 -18.85798
 Alpha  occ. eigenvalues --   -6.43746  -4.60070  -4.59967  -4.59708  -0.87147
 Alpha  occ. eigenvalues --   -0.82457  -0.75982  -0.73099  -0.39820  -0.32777
 Alpha  occ. eigenvalues --   -0.26964  -0.23199  -0.22141  -0.16894  -0.16169
 Alpha  occ. eigenvalues --   -0.14207  -0.11136  -0.08954  -0.07822  -0.06896
 Alpha virt. eigenvalues --    0.18977   0.22992   0.30473   0.32209   0.32615
 Alpha virt. eigenvalues --    0.36826   0.41294   0.42344   0.47446   0.56932
 Alpha virt. eigenvalues --    0.58140   0.63744   0.82352   0.83479   0.90095

 Mulliken charges:
               1
     1  P    1.098396
     2  O   -0.755909
     3  O   -0.577596
     4  H    0.240935
     5  O   -0.577490
     6  H    0.240936
     7  O   -0.669272
 Sum of Mulliken charges =  -1.00000

 Dipole moment (field-independent basis, Debye):
    X=             -0.0135    Y=             -3.5808    Z=             -1.2888  Tot=              3.8057
 Quadrupole moment (field-independent basis, Debye-Ang):
   XX=            -37.8894   YY=            -43.3491   ZZ=            -46.4765
   XY=             -0.0241   XZ=              0.0088   YZ=              2.4932

 Normal termination of Gaussian 09 at Tue Jun 20 23:44:03 2017.
