 Gaussian 09, Revision D.01,

 ----------------------------------------------
 # opt freq b3lyp/6-311g(d,p) geom=connectivity
 ----------------------------------------------

 -------------------
 Title Card Required
 -------------------
 Symbolic Z-matrix:
 Charge =  0 Multiplicity = 1

 SCF Done:  E(RB3LYP) =  -720.641996939     A.U. after   16 cycles
 SCF Done:  E(RB3LYP) =  -720.694294076     A.U. after   13 cycles
 SCF Done:  E(RB3LYP) =  -720.724762697     A.U. after   14 cycles
 SCF Done:  E(RB3LYP) =  -720.734375023     A.U. after   12 cycles
 SCF Done:  E(RB3LYP) =  -720.737058935     A.U. after   12 cycles
 SCF Done:  E(RB3LYP) =  -720.738190181     A.U. after   12 cycles
 SCF Done:  E(RB3LYP) =  -720.738540629     A.U. after   13 cycles
 SCF Done:  E(RB3LYP) =  -720.739907577     A.U. after   12 cycles
 SCF Done:  E(RB3LYP) =  -720.741019417     A.U. after   11 cycles
 SCF Done:  E(RB3LYP) =  -720.742245102     A.U. after   12 cycles
 SCF Done:  E(RB3LYP) =  -720.743153368     A.U. after    8 cycles
 SCF Done:  E(RB3LYP) =  -720.743155367     A.U. after    8 cycles
 SCF Done:  E(RB3LYP) =  -720.743157691     A.U. after    8 cycles
 SCF Done:  E(RB3LYP) =  -720.743160125     A.U. after    8 cycles
 SCF Done:  E(RB3LYP) =  -720.743160777     A.U. after    7 cycles
 SCF Done:  E(RB3LYP) =  -720.743160978     A.U. after    6 cycles
 Optimization completed.
    -- Stationary point found.
 Normal termination of Gaussian 09 at Tue Jun 20 23:36:49 2017.

 ----------------------------------------------------------------------
 #N Geom=AllCheck Guess=TCheck SCRF=Check GenChk RB3LYP/6-311G(d,p) Fre
 q
 ----------------------------------------------------------------------

 Structure from the checkpoint file:  "H3PO42-h2o.chk"
 -------------------
 Title Card Required
 -------------------
 Charge =  0 Multiplicity = 1

 SCF Done:  E(RB3LYP) =  -720.743160978     A.U. after    1 cycles

  Exact polarizability:  43.694   0.923  35.075   0.467   0.115  33.855
 Approx polarizability:  53.406   0.190  46.339   2.077  -1.889  49.517

                      1                      2                      3
                      A                      A                      A
 Frequencies --     46.4995               161.3212               187.0415
 Red. masses --      5.9438                 1.3764                 5.0564
 Frc consts  --      0.0076                 0.0211                 0.1042
 IR Inten    --      3.3964                74.9008                 7.9898

                      4                      5                      6
                      A                      A                      A
 Frequencies --    225.9637               260.1794               302.3339
 Red. masses --      6.9441                 1.5167                 1.0525
 Frc consts  --      0.2089                 0.0605                 0.0567
 IR Inten    --     37.3058               106.7094                78.2409

                      7                      8                      9
                      A                      A                      A
 Frequencies --    364.1038               367.2385               390.8621
 Red. masses --      3.4040                 1.1901                 2.6317
 Frc consts  --      0.2659                 0.0946                 0.2369
 IR Inten    --     40.2531                22.1455                72.5521

                     10                     11                     12
                      A                      A                      A
 Frequencies --    455.4721               464.4586               480.5579
 Red. masses --      6.1842                 6.6006                 7.8340
 Frc consts  --      0.7559                 0.8389                 1.0659
 IR Inten    --     53.8611                81.2840                49.0354

                     13                     14                     15
                      A                      A                      A
 Frequencies --    700.7967               830.4195               849.4876
 Red. masses --      1.0868                 6.8730                 1.2059
 Frc consts  --      0.3145                 2.7925                 0.5127
 IR Inten    --    358.9511                21.7558                34.7901

                     16                     17                     18
                      A                      A                      A
 Frequencies --    919.2105               953.3536              1034.4752
 Red. masses --      4.1374                 2.9624                 1.3489
 Frc consts  --      2.0597                 1.5863                 0.8505
 IR Inten    --    440.6427               223.1082                59.0997

                     19                     20                     21
                      A                      A                      A
 Frequencies --   1055.0371              1224.1487              1313.0252
 Red. masses --      1.7232                 2.9841                 1.5682
 Frc consts  --      1.1301                 2.6347                 1.5929
 IR Inten    --    150.7862                85.7158               304.7218

                     22                     23                     24
                      A                      A                      A
 Frequencies --   1648.7094              3280.1988              3612.6128
 Red. masses --      1.0764                 1.0690                 1.0585
 Frc consts  --      1.7239                 6.7766                 8.1395
 IR Inten    --     51.2217               853.0525               333.4648

                     25                     26                     27
                      A                      A                      A
 Frequencies --   3839.9485              3842.9769              3872.6015
 Red. masses --      1.0656                 1.0663                 1.0697
 Frc consts  --      9.2573                 9.2785                 9.4521
 IR Inten    --    137.0430                90.7297                66.7477

 - Thermochemistry -
 -------------------
 Temperature   298.150 Kelvin.  Pressure   1.00000 Atm.
 Atom     1 has atomic number 15 and mass  30.97376

 Molecular mass:   115.98746 amu.
 Principal axes and moments of inertia in atomic units:
                           1         2         3
     Eigenvalues --   401.29173 989.126311001.10898
           X            0.99992   0.01213   0.00396
           Y           -0.01241   0.85052   0.52580
           Z            0.00301  -0.52581   0.85060
 This molecule is an asymmetric top.
 Rotational symmetry number  1.
 Rotational temperatures (Kelvin)      0.21584     0.08757     0.08652
 Rotational constants (GHZ):           4.49733     1.82458     1.80274
 Zero-point vibrational energy     195488.0 (Joules/Mol)
                                   46.72274 (Kcal/Mol)
 Warning -- explicit consideration of  12 degrees of freedom as
           vibrations may cause significant error
 Vibrational temperatures:     66.90   232.11   269.11   325.11   374.34
          (Kelvin)            434.99   523.86   528.37   562.36   655.32
                              668.25   691.41  1008.29  1194.79  1222.22
                             1322.54  1371.66  1488.38  1517.96  1761.27
                             1889.15  2372.12  4719.47  5197.74  5524.82
                             5529.18  5571.80

 Zero-point correction=                           0.074457 (Hartree/Particle)
 Thermal correction to Energy=                    0.082937
 Thermal correction to Enthalpy=                  0.083882
 Thermal correction to Gibbs Free Energy=         0.041630
 Sum of electronic and zero-point Energies=           -720.668704
 Sum of electronic and thermal Energies=              -720.660224
 Sum of electronic and thermal Enthalpies=            -720.659279
 Sum of electronic and thermal Free Energies=         -720.701531

                     E (Thermal)             CV                S
                      KCal/Mol        Cal/Mol-Kelvin    Cal/Mol-Kelvin
 Total                   52.044             29.396             88.926
 Electronic               0.000              0.000              0.000
 Translational            0.889              2.981             40.160
 Rotational               0.889              2.981             27.477
 Vibrational             50.267             23.434             21.289
 Vibration     1          0.595              1.979              4.961
 Vibration     2          0.622              1.890              2.534
 Vibration     3          0.632              1.858              2.257
 Vibration     4          0.650              1.801              1.911
 Vibration     5          0.668              1.746              1.661
 Vibration     6          0.694              1.669              1.404
 Vibration     7          0.738              1.546              1.105
 Vibration     8          0.740              1.540              1.091
 Vibration     9          0.759              1.490              0.997
 Vibration    10          0.814              1.349              0.779
 Vibration    11          0.822              1.329              0.753
 Vibration    12          0.837              1.293              0.709

 Normal termination of Gaussian 09 at Tue Jun 20 23:37:37 2017.

 ---------------------------------------------
 # B3LYP/6-311+G(2df,2p) geom=check guess=read
 ---------------------------------------------

 -------------------
 Title Card Required
 -------------------
 Structure from the checkpoint file:  "H3PO42-h2o.chk"
 Charge =  0 Multiplicity = 1

 SCF Done:  E(RB3LYP) =  -720.817331172     A.U. after   11 cycles
 Normal termination of Gaussian 09 at Tue Jun 20 23:38:11 2017.

 --------------------------------------------------
 # B3LYP/6-311G** geom=check guess=read pop=nboread
 --------------------------------------------------

 -------------------
 Title Card Required
 -------------------
 Structure from the checkpoint file:  "H3PO42-h2o.chk"
 Charge =  0 Multiplicity = 1

 SCF Done:  E(RB3LYP) =  -720.743160978     A.U. after   11 cycles

 Summary of Natural Population Analysis:

                                       Natural Population
                Natural  -----------------------------------------------
    Atom  No    Charge         Core      Valence    Rydberg      Total
 -----------------------------------------------------------------------
      P    1    2.45674      9.99927     2.37739    0.16660    12.54326
      O    2   -1.09925      1.99977     7.09176    0.00772     9.09925
      O    3   -0.95663      1.99976     6.94737    0.00950     8.95663
      H    4    0.49734      0.00000     0.49763    0.00503     0.50266
      O    5   -0.96300      1.99976     6.95403    0.00920     8.96300
      H    6    0.49849      0.00000     0.49639    0.00511     0.50151
      O    7   -0.98700      1.99975     6.97858    0.00867     8.98700
      H    8    0.52066      0.00000     0.47114    0.00820     0.47934
      O    9   -0.92557      1.99979     6.91507    0.01071     8.92557
      H   10    0.49554      0.00000     0.49712    0.00734     0.50446
      H   11    0.46268      0.00000     0.53168    0.00564     0.53732
 =======================================================================
   * Total *    0.00000     19.99810    39.75817    0.24373    60.00000

 Normal termination of Gaussian 09 at Tue Jun 20 23:38:24 2017.
 Gaussian 09:  AM64L-G09RevD.01 24-Apr-2013

 -------------------------------------------------
 # B3LYP/6-311G** geom=check guess=read output=wfx
 -------------------------------------------------

 -------------------
 Title Card Required
 -------------------
 Structure from the checkpoint file:  "H3PO42-h2o.chk"
 Charge =  0 Multiplicity = 1

                         Standard orientation:
 ---------------------------------------------------------------------
 Center     Atomic      Atomic             Coordinates (Angstroms)
 Number     Number       Type             X           Y           Z
 ---------------------------------------------------------------------
      1         15           0       -0.480035   -0.020038    0.058758
      2          8           0        0.300515   -0.434301    1.254936
      3          8           0       -1.214422    1.401076    0.150511
      4          1           0       -1.757130    1.490426    0.942157
      5          8           0       -1.713642   -0.990044   -0.291553
      6          1           0       -1.492824   -1.918776   -0.156330
      7          8           0        0.366422    0.113978   -1.269648
      8          1           0        1.335231    0.120521   -1.050084
      9          8           0        2.727203   -0.067217   -0.039856
     10          1           0        2.170699   -0.299367    0.728019
     11          1           0        3.215940    0.719838    0.219749
 ---------------------------------------------------------------------

 SCF Done:  E(RB3LYP) =  -720.743160978     A.U. after    1 cycles

 The electronic state is 1-A.
 Alpha  occ. eigenvalues --  -77.20630 -19.16713 -19.16702 -19.14671 -19.13548
 Alpha  occ. eigenvalues --  -19.09287  -6.68693  -4.84930  -4.84902  -4.84768
 Alpha  occ. eigenvalues --   -1.11608  -1.05324  -1.04798  -1.02668  -0.97982
 Alpha  occ. eigenvalues --   -0.66756  -0.57694  -0.55769  -0.54860  -0.48802
 Alpha  occ. eigenvalues --   -0.44504  -0.43962  -0.41002  -0.39340  -0.38814
 Alpha  occ. eigenvalues --   -0.37788  -0.35151  -0.33261  -0.31319  -0.31112
 Alpha virt. eigenvalues --    0.00209   0.03336   0.04217   0.10522   0.11238
 Alpha virt. eigenvalues --    0.13449   0.13831   0.16523   0.18709   0.20639
 Alpha virt. eigenvalues --    0.22973   0.23457   0.33712   0.36049   0.37351

 Mulliken charges:
               1
     1  P    1.176626
     2  O   -0.641878
     3  O   -0.493431
     4  H    0.307900
     5  O   -0.499733
     6  H    0.306211
     7  O   -0.526260
     8  H    0.323188
     9  O   -0.508988
    10  H    0.290742
    11  H    0.265623
 Sum of Mulliken charges =   0.00000

 Dipole moment (field-independent basis, Debye):
    X=              0.0025    Y=              0.3248    Z=              1.5025  Tot=              1.5372
 Quadrupole moment (field-independent basis, Debye-Ang):
   XX=            -36.6824   YY=            -36.8666   ZZ=            -46.2265
   XY=              5.0041   XZ=             -2.1492   YZ=              3.9090

 Normal termination of Gaussian 09 at Tue Jun 20 23:38:27 2017.
