 Gaussian 09, Revision D.01,

 -----------------------------------------
 # opt freq b3lyp/6-311g geom=connectivity
 -----------------------------------------

 -------------------
 Title Card Required
 -------------------
 Symbolic Z-matrix:
 Charge = -1 Multiplicity = 1

 SCF Done:  E(RB3LYP) =  -719.880367482     A.U. after   18 cycles
 SCF Done:  E(RB3LYP) =  -719.922987957     A.U. after   14 cycles
 SCF Done:  E(RB3LYP) =  -719.938709802     A.U. after   16 cycles
 SCF Done:  E(RB3LYP) =  -719.946586639     A.U. after   15 cycles
 SCF Done:  E(RB3LYP) =  -719.951270848     A.U. after   15 cycles
 SCF Done:  E(RB3LYP) =  -719.954066925     A.U. after   15 cycles
 SCF Done:  E(RB3LYP) =  -719.954644292     A.U. after   13 cycles
 SCF Done:  E(RB3LYP) =  -719.954882897     A.U. after   12 cycles
 SCF Done:  E(RB3LYP) =  -719.955010731     A.U. after   12 cycles
 SCF Done:  E(RB3LYP) =  -719.955144787     A.U. after   12 cycles
 SCF Done:  E(RB3LYP) =  -719.957325308     A.U. after   12 cycles
 SCF Done:  E(RB3LYP) =  -719.957342791     A.U. after   12 cycles
 SCF Done:  E(RB3LYP) =  -719.957347397     A.U. after   10 cycles
 SCF Done:  E(RB3LYP) =  -719.957347761     A.U. after    8 cycles
 SCF Done:  E(RB3LYP) =  -719.957347897     A.U. after    8 cycles
 SCF Done:  E(RB3LYP) =  -719.957347926     A.U. after    8 cycles
 Optimization completed.
    -- Stationary point found.
 Normal termination of Gaussian 09 at Wed Jun 21 04:56:38 2017.

 ------------------------------------------------------------------
 #N Geom=AllCheck Guess=TCheck SCRF=Check GenChk RB3LYP/6-311G Freq
 ------------------------------------------------------------------

 Structure from the checkpoint file:  "H3PO4-h2o-A.chk"
 -------------------
 Title Card Required
 -------------------
 Charge = -1 Multiplicity = 1

 SCF Done:  E(RB3LYP) =  -719.957347926     A.U. after    1 cycles

  Exact polarizability:  49.347  -0.741  40.795  -2.335   2.275  38.360
 Approx polarizability:  65.885  -0.682  62.292  -2.763  13.027  58.926

                      1                      2                      3
                      A                      A                      A
 Frequencies --     29.5083                93.1754               109.1289
 Red. masses --      9.3709                 6.6542                 1.4843
 Frc consts  --      0.0048                 0.0340                 0.0104
 IR Inten    --      0.3712                 7.1126                40.9853

                      4                      5                      6
                      A                      A                      A
 Frequencies --    134.4837               203.5051               303.4971
 Red. masses --      1.7831                 4.7346                 3.1264
 Frc consts  --      0.0190                 0.1155                 0.1697
 IR Inten    --     88.9437                30.3369                18.9208

                      7                      8                      9
                      A                      A                      A
 Frequencies --    338.5691               380.4645               400.7483
 Red. masses --      3.1971                 7.7012                 5.3433
 Frc consts  --      0.2159                 0.6568                 0.5056
 IR Inten    --      9.7784                29.4072               104.5599

                     10                     11                     12
                      A                      A                      A
 Frequencies --    419.0881               480.2562               511.2034
 Red. masses --      9.6560                 1.0287                 1.0303
 Frc consts  --      0.9992                 0.1398                 0.1586
 IR Inten    --     66.5953                 4.2179               121.4559

                     13                     14                     15
                      A                      A                      A
 Frequencies --    626.9707               669.2960               734.7194
 Red. masses --     14.3113                 4.9025                 1.2690
 Frc consts  --      3.3145                 1.2939                 0.4036
 IR Inten    --    110.6670                68.4958               566.5695

                     16                     17                     18
                      A                      A                      A
 Frequencies --    882.8602               984.1069              1055.4836
 Red. masses --     11.1550                 2.5963                 1.2065
 Frc consts  --      5.1228                 1.4815                 0.7919
 IR Inten    --    219.0083               109.8147                87.9162

                     19                     20                     21
                      A                      A                      A
 Frequencies --   1109.8115              1758.9596              3530.7353
 Red. masses --      1.7852                 1.0868                 1.0424
 Frc consts  --      1.2955                 1.9812                 7.6565
 IR Inten    --    115.7045               328.3250                95.7618

                     22                     23                     24
                      A                      A                      A
 Frequencies --   3602.9413              3686.8531              3697.1323
 Red. masses --      1.0797                 1.0657                 1.0657
 Frc consts  --      8.2576                 8.5345                 8.5829
 IR Inten    --     36.1873                13.1137                10.6768

 - Thermochemistry -
 -------------------
 Temperature   298.150 Kelvin.  Pressure   1.00000 Atm.
 Atom     1 has atomic number 15 and mass  30.97376

 Molecular mass:   114.97964 amu.
 Principal axes and moments of inertia in atomic units:
                           1         2         3
     Eigenvalues --   445.099641070.002231098.67131
           X            0.99994  -0.00886  -0.00702
           Y            0.00680   0.96756  -0.25254
           Z            0.00903   0.25248   0.96756
 This molecule is an asymmetric top.
 Rotational symmetry number  1.
 Warning -- assumption of classical behavior for rotation
           may cause significant error
 Rotational temperatures (Kelvin)      0.19459     0.08095     0.07884
 Rotational constants (GHZ):           4.05469     1.68667     1.64266
 Zero-point vibrational energy     153980.3 (Joules/Mol)
                                   36.80218 (Kcal/Mol)
 Warning -- explicit consideration of  12 degrees of freedom as
           vibrations may cause significant error
 Vibrational temperatures:     42.46   134.06   157.01   193.49   292.80
          (Kelvin)            436.66   487.12   547.40   576.59   602.97
                              690.98   735.51   902.07   962.97  1057.10
                             1270.24  1415.91  1518.60  1596.77  2530.75
                             5079.93  5183.82  5304.55  5319.34

 Zero-point correction=                           0.058648 (Hartree/Particle)
 Thermal correction to Energy=                    0.067747
 Thermal correction to Enthalpy=                  0.068691
 Thermal correction to Gibbs Free Energy=         0.024095
 Sum of electronic and zero-point Energies=           -719.898700
 Sum of electronic and thermal Energies=              -719.889601
 Sum of electronic and thermal Enthalpies=            -719.888657
 Sum of electronic and thermal Free Energies=         -719.933253

                     E (Thermal)             CV                S
                      KCal/Mol        Cal/Mol-Kelvin    Cal/Mol-Kelvin
 Total                   42.512             29.958             93.859
 Electronic               0.000              0.000              0.000
 Translational            0.889              2.981             40.134
 Rotational               0.889              2.981             27.750
 Vibrational             40.734             23.996             25.975
 Vibration     1          0.593              1.984              5.862
 Vibration     2          0.602              1.954              3.592
 Vibration     3          0.606              1.942              3.284
 Vibration     4          0.613              1.919              2.881
 Vibration     5          0.639              1.835              2.101
 Vibration     6          0.695              1.667              1.398
 Vibration     7          0.719              1.598              1.219
 Vibration     8          0.750              1.512              1.037
 Vibration     9          0.767              1.469              0.960
 Vibration    10          0.782              1.429              0.895
 Vibration    11          0.837              1.294              0.709
 Vibration    12          0.866              1.225              0.631

 Normal termination of Gaussian 09 at Wed Jun 21 04:57:30 2017.

 ---------------------------------------------
 # B3LYP/6-311+G(2df,2p) geom=check guess=read
 ---------------------------------------------

 -------------------
 Title Card Required
 -------------------
 Structure from the checkpoint file:  "H3PO4-h2o-A.chk"
 Charge = -1 Multiplicity = 1

 SCF Done:  E(RB3LYP) =  -720.259836892     A.U. after   13 cycles
 Normal termination of Gaussian 09 at Wed Jun 21 04:58:33 2017.

 --------------------------------------------------
 # B3LYP/6-311G** geom=check guess=read pop=nboread
 --------------------------------------------------

 -------------------
 Title Card Required
 -------------------
 Structure from the checkpoint file:  "H3PO4-h2o-A.chk"
 Charge = -1 Multiplicity = 1

 SCF Done:  E(RB3LYP) =  -720.178874716     A.U. after   11 cycles

 Summary of Natural Population Analysis:

                                       Natural Population
                Natural  -----------------------------------------------
    Atom  No    Charge         Core      Valence    Rydberg      Total
 -----------------------------------------------------------------------
      P    1    2.29667      9.99947     2.54928    0.15458    12.70333
      O    2   -1.12204      1.99986     7.11596    0.00621     9.12204
      O    3   -0.97610      1.99983     6.96622    0.01006     8.97610
      H    4    0.45911      0.00000     0.53463    0.00626     0.54089
      O    5   -0.99300      1.99984     6.98352    0.00964     8.99300
      H    6    0.45910      0.00000     0.53422    0.00668     0.54090
      O    7   -1.08862      1.99986     7.08205    0.00671     9.08862
      O    8   -0.97747      1.99984     6.96896    0.00868     8.97747
      H    9    0.47313      0.00000     0.51871    0.00815     0.52687
      H   10    0.46922      0.00000     0.52286    0.00792     0.53078
 =======================================================================
   * Total *   -1.00000     19.99870    39.77641    0.22489    60.00000

 Normal termination of Gaussian 09 at Wed Jun 21 04:59:35 2017.
 Gaussian 09:  AM64L-G09RevD.01 24-Apr-2013

 -------------------------------------------------
 # B3LYP/6-311G** geom=check guess=read output=wfx
 -------------------------------------------------

 -------------------
 Title Card Required
 -------------------
 Structure from the checkpoint file:  "H3PO4-h2o-A.chk"
 Charge = -1 Multiplicity = 1

                         Standard orientation:
 ---------------------------------------------------------------------
 Center     Atomic      Atomic             Coordinates (Angstroms)
 Number     Number       Type             X           Y           Z
 ---------------------------------------------------------------------
      1         15           0        0.396457    0.048320    0.021066
      2          8           0       -0.367664   -0.899364   -1.019901
      3          8           0        1.585954    1.024428   -0.789938
      4          1           0        2.107074    0.488033   -1.411919
      5          8           0        1.541335   -1.000993    0.866106
      6          1           0        1.135668   -1.874180    1.011886
      7          8           0       -0.402976    0.989974    1.014880
      8          8           0       -2.924735   -0.033907   -0.048592
      9          1           0       -2.282238   -0.512538   -0.614457
     10          1           0       -2.362663    0.532778    0.518069
 ---------------------------------------------------------------------

 SCF Done:  E(RB3LYP) =  -720.178874716     A.U. after    1 cycles

 The electronic state is 1-A.
 Alpha  occ. eigenvalues --  -77.01742 -18.97941 -18.97346 -18.90739 -18.90399
 Alpha  occ. eigenvalues --  -18.89926  -6.49173  -4.65555  -4.65427  -4.65149
 Alpha  occ. eigenvalues --   -0.87399  -0.83689  -0.79566  -0.77158  -0.74069
 Alpha  occ. eigenvalues --   -0.43222  -0.35612  -0.31805  -0.29130  -0.24925
 Alpha  occ. eigenvalues --   -0.22922  -0.20370  -0.19291  -0.18161  -0.16447
 Alpha  occ. eigenvalues --   -0.12655  -0.12167  -0.10350  -0.10143  -0.09345
 Alpha virt. eigenvalues --    0.15359   0.19416   0.24037   0.27449   0.27858
 Alpha virt. eigenvalues --    0.28188   0.29420   0.35138   0.36026   0.40786
 Alpha virt. eigenvalues --    0.42778   0.52685   0.54307   0.55269   0.58544

 Mulliken charges:
               1
     1  P    1.149075
     2  O   -0.734386
     3  O   -0.574098
     4  H    0.256330
     5  O   -0.601224
     6  H    0.260092
     7  O   -0.684975
     8  O   -0.577950
     9  H    0.254508
    10  H    0.252628
 Sum of Mulliken charges =  -1.00000

 Dipole moment (field-independent basis, Debye):
    X=              3.9938    Y=             -2.0346    Z=             -0.7136  Tot=              4.5386
 Quadrupole moment (field-independent basis, Debye-Ang):
   XX=            -63.5742   YY=            -47.8687   ZZ=            -48.1018
   XY=             -2.2269   XZ=             -4.1686   YZ=             -4.4078

 Normal termination of Gaussian 09 at Wed Jun 21 04:59:45 2017.
