 Gaussian 09, Revision D.01,

 -----------------------------------------
 # opt freq b3lyp/6-311g geom=connectivity
 -----------------------------------------

 -------------------
 Title Card Required
 -------------------
 Symbolic Z-matrix:
 Charge = -1 Multiplicity = 1

 SCF Done:  E(RB3LYP) =  -1562.56372811     A.U. after   18 cycles
 SCF Done:  E(RB3LYP) =  -1562.60403529     A.U. after   15 cycles
 SCF Done:  E(RB3LYP) =  -1562.62026639     A.U. after   16 cycles
 SCF Done:  E(RB3LYP) =  -1562.62143566     A.U. after   15 cycles
 SCF Done:  E(RB3LYP) =  -1562.62173254     A.U. after   14 cycles
 SCF Done:  E(RB3LYP) =  -1562.62178961     A.U. after   13 cycles
 SCF Done:  E(RB3LYP) =  -1562.62183436     A.U. after   13 cycles
 SCF Done:  E(RB3LYP) =  -1562.62183859     A.U. after   10 cycles
 SCF Done:  E(RB3LYP) =  -1562.62183905     A.U. after    9 cycles
 SCF Done:  E(RB3LYP) =  -1562.62183920     A.U. after   10 cycles
 Optimization completed.
    -- Stationary point found.
 Normal termination of Gaussian 09 at Wed Jun 21 09:43:45 2017.

 ------------------------------------------------------------------
 #N Geom=AllCheck Guess=TCheck SCRF=Check GenChk RB3LYP/6-311G Freq
 ------------------------------------------------------------------

 Structure from the checkpoint file:  "HCl2PO4-A.chk"
 -------------------
 Title Card Required
 -------------------
 Charge = -1 Multiplicity = 1

 SCF Done:  E(RB3LYP) =  -1562.62183920     A.U. after    1 cycles

  Exact polarizability:  79.137  -0.005  74.554 -14.325   0.004  45.266
 Approx polarizability: 124.421  -0.022 125.286 -49.654   0.022  97.059

                      1                      2                      3
                      A                      A                      A
 Frequencies --     39.6478                99.9863               117.6003
 Red. masses --     31.1149                17.3337                19.6857
 Frc consts  --      0.0288                 0.1021                 0.1604
 IR Inten    --      1.1255                 0.4091                 0.0374

                      4                      5                      6
                      A                      A                      A
 Frequencies --    134.8830               233.3182               251.3784
 Red. masses --     21.5676                16.6478                19.4749
 Frc consts  --      0.2312                 0.5340                 0.7251
 IR Inten    --      0.2503                 2.6547                 2.4986

                      7                      8                      9
                      A                      A                      A
 Frequencies --    283.8784               392.4994               400.8157
 Red. masses --     19.7248                19.5782                18.0991
 Frc consts  --      0.9365                 1.7771                 1.7132
 IR Inten    --     14.9607                52.7242                36.9051

                     10                     11                     12
                      A                      A                      A
 Frequencies --    504.9677               540.8064               642.0202
 Red. masses --     18.8653                20.5166                18.4085
 Frc consts  --      2.8343                 3.5354                 4.4706
 IR Inten    --     88.1880               230.2885                 0.4117

                     13                     14                     15
                      A                      A                      A
 Frequencies --    656.7818               877.2859              1088.6955
 Red. masses --     18.7619                17.9304                20.9218
 Frc consts  --      4.7684                 8.1306                14.6104
 IR Inten    --     19.6151                97.4708                77.2105

 - Thermochemistry -
 -------------------
 Temperature   298.150 Kelvin.  Pressure   1.00000 Atm.
 Atom     1 has atomic number 15 and mass  30.97376

 Molecular mass:   164.89113 amu.
 Principal axes and moments of inertia in atomic units:
                           1         2         3
     Eigenvalues --  1100.068451640.664872203.12152
           X            1.00000   0.00000   0.00021
           Y            0.00000   1.00000   0.00000
           Z           -0.00021   0.00000   1.00000
 This molecule is an asymmetric top.
 Rotational symmetry number  1.
 Warning -- assumption of classical behavior for rotation
           may cause significant error
 Rotational temperatures (Kelvin)      0.07873     0.05279     0.03931
 Rotational constants (GHZ):           1.64057     1.10001     0.81917
 Zero-point vibrational energy      37470.4 (Joules/Mol)
                                    8.95565 (Kcal/Mol)
 Warning -- explicit consideration of  11 degrees of freedom as
           vibrations may cause significant error
 Vibrational temperatures:     57.04   143.86   169.20   194.07   335.69
          (Kelvin)            361.68   408.44   564.72   576.68   726.54
                              778.10   923.72   944.96  1262.22  1566.39

 Zero-point correction=                           0.014272 (Hartree/Particle)
 Thermal correction to Energy=                    0.022899
 Thermal correction to Enthalpy=                  0.023843
 Thermal correction to Gibbs Free Energy=        -0.021260
 Sum of electronic and zero-point Energies=          -1562.607567
 Sum of electronic and thermal Energies=             -1562.598941
 Sum of electronic and thermal Enthalpies=           -1562.597996
 Sum of electronic and thermal Free Energies=        -1562.643099

                     E (Thermal)             CV                S
                      KCal/Mol        Cal/Mol-Kelvin    Cal/Mol-Kelvin
 Total                   14.369             27.032             94.926
 Electronic               0.000              0.000              0.000
 Translational            0.889              2.981             41.209
 Rotational               0.889              2.981             29.765
 Vibrational             12.592             21.071             23.952
 Vibration     1          0.594              1.981              5.277
 Vibration     2          0.604              1.949              3.455
 Vibration     3          0.608              1.935              3.139
 Vibration     4          0.613              1.919              2.875
 Vibration     5          0.654              1.790              1.853
 Vibration     6          0.663              1.760              1.721
 Vibration     7          0.682              1.704              1.510
 Vibration     8          0.760              1.486              0.991
 Vibration     9          0.767              1.468              0.960
 Vibration    10          0.860              1.239              0.646
 Vibration    11          0.896              1.160              0.564

 Optimization completed.
    -- Stationary point found.
 Normal termination of Gaussian 09 at Wed Jun 21 09:44:22 2017.

 ---------------------------------------------
 # B3LYP/6-311+G(2df,2p) geom=check guess=read
 ---------------------------------------------

 -------------------
 Title Card Required
 -------------------
 Structure from the checkpoint file:  "HCl2PO4-A.chk"
 Charge = -1 Multiplicity = 1

 SCF Done:  E(RB3LYP) =  -1562.88827489     A.U. after   13 cycles
 Normal termination of Gaussian 09 at Wed Jun 21 09:45:25 2017.

 --------------------------------------------------
 # B3LYP/6-311G** geom=check guess=read pop=nboread
 --------------------------------------------------

 -------------------
 Title Card Required
 -------------------
 Structure from the checkpoint file:  "HCl2PO4-A.chk"
 Charge = -1 Multiplicity = 1

 SCF Done:  E(RB3LYP) =  -1562.81232485     A.U. after   12 cycles

 Summary of Natural Population Analysis:

                                       Natural Population
                Natural  -----------------------------------------------
    Atom  No    Charge         Core      Valence    Rydberg      Total
 -----------------------------------------------------------------------
      P    1    2.25319      9.99928     2.60055    0.14698    12.74681
      O    2   -0.71167      1.99992     6.70540    0.00635     8.71167
      O    3   -0.99051      1.99987     6.98420    0.00643     8.99051
      O    4   -0.71175      1.99992     6.70548    0.00635     8.71175
      O    5   -0.99052      1.99987     6.98422    0.00643     8.99052
     Cl    6    0.07567      9.99993     6.91120    0.01319    16.92433
     Cl    7    0.07560      9.99993     6.91129    0.01318    16.92440
 =======================================================================
   * Total *   -1.00000     37.99874    43.80235    0.19891    82.00000

 Normal termination of Gaussian 09 at Wed Jun 21 09:46:33 2017.
 Gaussian 09:  AM64L-G09RevD.01 24-Apr-2013

 -------------------------------------------------
 # B3LYP/6-311G** geom=check guess=read output=wfx
 -------------------------------------------------

 -------------------
 Title Card Required
 -------------------
 Structure from the checkpoint file:  "HCl2PO4-A.chk"
 Charge = -1 Multiplicity = 1

                         Standard orientation:
 ---------------------------------------------------------------------
 Center     Atomic      Atomic             Coordinates (Angstroms)
 Number     Number       Type             X           Y           Z
 ---------------------------------------------------------------------
      1         15           0        0.000193    1.040811   -0.000055
      2          8           0        1.035000   -0.113517    0.950066
      3          8           0       -0.756358    1.725238    1.204032
      4          8           0       -1.035177   -0.113486   -0.949753
      5          8           0        0.757002    1.724325   -1.204438
      6         17           0       -2.177561   -1.217237    0.015612
      7         17           0        2.177171   -1.217624   -0.015519
 ---------------------------------------------------------------------

 SCF Done:  E(RB3LYP) =  -1562.81232485     A.U. after    1 cycles

 The electronic state is 1-A.
 Alpha  occ. eigenvalues -- -101.44985-101.44985 -77.04132 -19.04599 -19.04596
 Alpha  occ. eigenvalues --  -18.94653 -18.94652  -9.35938  -9.35937  -7.12735
 Alpha  occ. eigenvalues --   -7.12735  -7.11307  -7.11306  -7.11288  -7.11287
 Alpha  occ. eigenvalues --   -6.51689  -4.68074  -4.67952  -4.67612  -0.88278
 Alpha  occ. eigenvalues --   -0.84968  -0.80657  -0.77917  -0.66156  -0.65823
 Alpha  occ. eigenvalues --   -0.41206  -0.34304  -0.29124  -0.28268  -0.28056
 Alpha  occ. eigenvalues --   -0.24686  -0.23489  -0.22774  -0.18843  -0.18839
 Alpha  occ. eigenvalues --   -0.16399  -0.16089  -0.15554  -0.14537  -0.13858
 Alpha  occ. eigenvalues --   -0.12870
 Alpha virt. eigenvalues --    0.01246   0.01627   0.16911   0.22383   0.23409
 Alpha virt. eigenvalues --    0.29042   0.32595   0.33694   0.37494   0.38672
 Alpha virt. eigenvalues --    0.41362   0.42814   0.43061   0.45052   0.48757

 Mulliken charges:
               1
     1  P    1.274634
     2  O   -0.519067
     3  O   -0.619991
     4  O   -0.519140
     5  O   -0.619987
     6  Cl   0.001805
     7  Cl   0.001746
 Sum of Mulliken charges =  -1.00000

 Dipole moment (field-independent basis, Debye):
    X=             -0.0005    Y=             -3.6063    Z=              0.0005  Tot=              3.6063
 Quadrupole moment (field-independent basis, Debye-Ang):
   XX=            -70.4943   YY=            -73.4600   ZZ=            -71.8131
   XY=              0.0001   XZ=              0.5956   YZ=             -0.0008

 Normal termination of Gaussian 09 at Wed Jun 21 09:46:41 2017.
