 Gaussian 09, Revision D.01,

 -----------------------------------------
 # opt freq b3lyp/6-311g geom=connectivity
 -----------------------------------------

 -------------------
 Title Card Required
 -------------------
 Symbolic Z-matrix:
 Charge =  0 Multiplicity = 1

 SCF Done:  E(RB3LYP) =  -1639.50216452     A.U. after   17 cycles
 SCF Done:  E(RB3LYP) =  -1639.53284096     A.U. after   16 cycles
 SCF Done:  E(RB3LYP) =  -1639.54450478     A.U. after   17 cycles
 SCF Done:  E(RB3LYP) =  -1639.54649755     A.U. after   16 cycles
 SCF Done:  E(RB3LYP) =  -1639.54919257     A.U. after   17 cycles
 SCF Done:  E(RB3LYP) =  -1639.55067014     A.U. after   15 cycles
 SCF Done:  E(RB3LYP) =  -1639.55262251     A.U. after   14 cycles
 SCF Done:  E(RB3LYP) =  -1639.55350391     A.U. after   14 cycles
 SCF Done:  E(RB3LYP) =  -1639.55396755     A.U. after   15 cycles
 SCF Done:  E(RB3LYP) =  -1639.55375466     A.U. after   16 cycles
 SCF Done:  E(RB3LYP) =  -1639.55581616     A.U. after   10 cycles
 SCF Done:  E(RB3LYP) =  -1639.55581626     A.U. after    9 cycles
 SCF Done:  E(RB3LYP) =  -1639.55581637     A.U. after    9 cycles
 SCF Done:  E(RB3LYP) =  -1639.55581632     A.U. after    8 cycles
 SCF Done:  E(RB3LYP) =  -1639.55581635     A.U. after    8 cycles
 SCF Done:  E(RB3LYP) =  -1639.55581636     A.U. after    8 cycles
 Optimization completed.
    -- Stationary point found.
 Normal termination of Gaussian 09 at Fri Jun 23 05:03:59 2017.

 ------------------------------------------------------------------
 #N Geom=AllCheck Guess=TCheck SCRF=Check GenChk RB3LYP/6-311G Freq
 ------------------------------------------------------------------

 Structure from the checkpoint file:  "HCl2PO4-h2o.chk"
 -------------------
 Title Card Required
 -------------------
 Charge =  0 Multiplicity = 1

 SCF Done:  E(RB3LYP) =  -1639.55581636     A.U. after    1 cycles

  Exact polarizability:  70.179   9.838  67.569  -9.155   1.522  66.232
 Approx polarizability:  94.073  22.696 104.075 -26.029  -7.227 118.794

                      1                      2                      3
                      A                      A                      A
 Frequencies --     22.5840                36.6023                83.9887
 Red. masses --      6.8942                24.2052                 6.7561
 Frc consts  --      0.0021                 0.0191                 0.0281
 IR Inten    --      6.6891                 0.3066                12.5116

                      4                      5                      6
                      A                      A                      A
 Frequencies --     94.2544               121.5971               126.3146
 Red. masses --      6.9339                 1.7640                 2.4246
 Frc consts  --      0.0363                 0.0154                 0.0228
 IR Inten    --     10.5683               124.8888                87.6081

                      7                      8                      9
                      A                      A                      A
 Frequencies --    142.1020               220.2807               239.5236
 Red. masses --     15.3385                10.3564                13.2269
 Frc consts  --      0.1825                 0.2961                 0.4471
 IR Inten    --      0.8906                 3.4511                 2.4776

                     10                     11                     12
                      A                      A                      A
 Frequencies --    285.0194               363.6445               375.2918
 Red. masses --     13.7744                 5.5378                 2.7036
 Frc consts  --      0.6593                 0.4315                 0.2244
 IR Inten    --     15.1668                15.1070                 9.2890

                     13                     14                     15
                      A                      A                      A
 Frequencies --    396.0433               416.0722               463.7903
 Red. masses --      5.4085                 2.0031                 1.3275
 Frc consts  --      0.4998                 0.2043                 0.1682
 IR Inten    --    102.7839               158.9620               105.8262

                     16                     17                     18
                      A                      A                      A
 Frequencies --    516.7816               575.0702               720.9788
 Red. masses --     13.9391                17.5789                17.1829
 Frc consts  --      2.1933                 3.4252                 5.2625
 IR Inten    --     53.2660               177.8782                20.0339

                     19                     20                     21
                      A                      A                      A
 Frequencies --    744.8481               813.8190               951.5320
 Red. masses --     17.9467                10.6810                 1.0767
 Frc consts  --      5.8664                 4.1679                 0.5744
 IR Inten    --     81.8233                93.4754               293.9266

                     22                     23                     24
                      A                      A                      A
 Frequencies --   1076.5983              1438.0654              1596.2040
 Red. masses --     16.6870                 1.0789                 1.1057
 Frc consts  --     11.3955                 1.3145                 1.6599
 IR Inten    --     95.9313               230.4959               113.5552

                     25                     26                     27
                      A                      A                      A
 Frequencies --   2670.0444              3690.2934              3880.8153
 Red. masses --      1.0740                 1.0401                 1.0865
 Frc consts  --      4.5112                 8.3453                 9.6408
 IR Inten    --   1984.0159                27.7599               114.4732

 - Thermochemistry -
 -------------------
 Temperature   298.150 Kelvin.  Pressure   1.00000 Atm.
 Atom     1 has atomic number 15 and mass  30.97376

 Molecular mass:   183.90952 amu.
 Principal axes and moments of inertia in atomic units:
                           1         2         3
     Eigenvalues --  1746.732372169.601912525.61416
           X            0.99434  -0.10160   0.03121
           Y            0.10393   0.99092  -0.08525
           Z           -0.02227   0.08801   0.99587
 This molecule is an asymmetric top.
 Rotational symmetry number  1.
 Warning -- assumption of classical behavior for rotation
           may cause significant error
 Rotational temperatures (Kelvin)      0.04959     0.03992     0.03429
 Rotational constants (GHZ):           1.03321     0.83183     0.71458
 Zero-point vibrational energy     131961.0 (Joules/Mol)
                                   31.53944 (Kcal/Mol)
 Warning -- explicit consideration of  17 degrees of freedom as
           vibrations may cause significant error
 Vibrational temperatures:     32.49    52.66   120.84   135.61   174.95
          (Kelvin)            181.74   204.45   316.93   344.62   410.08
                              523.20   539.96   569.82   598.63   667.29
                              743.53   827.40  1037.33  1071.67  1170.90
                             1369.04  1548.98  2069.05  2296.58  3841.59
                             5309.50  5583.62

 Zero-point correction=                           0.050261 (Hartree/Particle)
 Thermal correction to Energy=                    0.062152
 Thermal correction to Enthalpy=                  0.063096
 Thermal correction to Gibbs Free Energy=         0.009720
 Sum of electronic and zero-point Energies=          -1639.505555
 Sum of electronic and thermal Energies=             -1639.493664
 Sum of electronic and thermal Enthalpies=           -1639.492720
 Sum of electronic and thermal Free Energies=        -1639.546096

                     E (Thermal)             CV                S
                      KCal/Mol        Cal/Mol-Kelvin    Cal/Mol-Kelvin
 Total                   39.001             37.560            112.339
 Electronic               0.000              0.000              0.000
 Translational            0.889              2.981             41.534
 Rotational               0.889              2.981             30.638
 Vibrational             37.223             31.598             40.167
 Vibration     1          0.593              1.985              6.393
 Vibration     2          0.594              1.982              5.435
 Vibration     3          0.601              1.960              3.795
 Vibration     4          0.603              1.953              3.570
 Vibration     5          0.609              1.931              3.075
 Vibration     6          0.611              1.927              3.001
 Vibration     7          0.616              1.911              2.775
 Vibration     8          0.647              1.810              1.957
 Vibration     9          0.657              1.780              1.806
 Vibration    10          0.683              1.701              1.503
 Vibration    11          0.737              1.547              1.106
 Vibration    12          0.746              1.523              1.058
 Vibration    13          0.763              1.479              0.977
 Vibration    14          0.779              1.435              0.905
 Vibration    15          0.821              1.330              0.755
 Vibration    16          0.872              1.213              0.617
 Vibration    17          0.931              1.085              0.495

 Normal termination of Gaussian 09 at Fri Jun 23 05:04:24 2017.

 ---------------------------------------------
 # B3LYP/6-311+G(2df,2p) geom=check guess=read
 ---------------------------------------------

 -------------------
 Title Card Required
 -------------------
 Structure from the checkpoint file:  "HCl2PO4-h2o.chk"
 Charge =  0 Multiplicity = 1

 SCF Done:  E(RB3LYP) =  -1639.86158607     A.U. after   14 cycles
 Normal termination of Gaussian 09 at Fri Jun 23 05:05:40 2017.

 --------------------------------------------------
 # B3LYP/6-311G** geom=check guess=read pop=nboread
 --------------------------------------------------

 -------------------
 Title Card Required
 -------------------
 Structure from the checkpoint file:  "HCl2PO4-h2o.chk"
 Charge =  0 Multiplicity = 1

 SCF Done:  E(RB3LYP) =  -1639.78284979     A.U. after   12 cycles

 Summary of Natural Population Analysis:

                                       Natural Population
                Natural  -----------------------------------------------
    Atom  No    Charge         Core      Valence    Rydberg      Total
 -----------------------------------------------------------------------
      P    1    2.33597      9.99914     2.53338    0.13150    12.66403
      O    2   -0.78319      1.99990     6.77691    0.00638     8.78319
      O    3   -0.96686      1.99976     6.96077    0.00632     8.96686
      H    4    0.53433      0.00000     0.45892    0.00675     0.46567
      O    5   -0.71816      1.99988     6.71176    0.00652     8.71816
      O    6   -0.91482      1.99986     6.90791    0.00705     8.91482
     Cl    7    0.20541      9.99992     6.78065    0.01402    16.79459
     Cl    8    0.22478      9.99993     6.76039    0.01491    16.77522
      O    9   -0.91999      1.99977     6.91163    0.00859     8.91999
      H   10    0.49404      0.00000     0.50147    0.00449     0.50596
      H   11    0.50848      0.00000     0.48604    0.00548     0.49152
 =======================================================================
   * Total *    0.00000     39.99816    51.78982    0.21202    92.00000

 Normal termination of Gaussian 09 at Fri Jun 23 05:05:54 2017.
 Gaussian 09:  AM64L-G09RevD.01 24-Apr-2013

 -------------------------------------------------
 # B3LYP/6-311G** geom=check guess=read output=wfx
 -------------------------------------------------

 -------------------
 Title Card Required
 -------------------
 Structure from the checkpoint file:  "HCl2PO4-h2o.chk"
 Charge =  0 Multiplicity = 1

                         Standard orientation:
 ---------------------------------------------------------------------
 Center     Atomic      Atomic             Coordinates (Angstroms)
 Number     Number       Type             X           Y           Z
 ---------------------------------------------------------------------
      1         15           0        0.064034    0.149078    0.942986
      2          8           0       -1.007229   -0.100113   -0.471235
      3          8           0        0.351142    1.728222    0.606833
      4          1           0       -0.316608    2.242825    0.013640
      5          8           0        1.532746   -0.720384    0.573716
      6          8           0       -0.459925   -0.359335    2.316882
      7         17           0        2.414328   -0.290065   -0.987334
      8         17           0       -1.773211   -1.749868   -0.677221
      9          8           0       -1.411056    2.581518   -0.936942
     10          1           0       -1.810650    3.395343   -1.263131
     11          1           0       -1.777659    1.765258   -1.311883
 ---------------------------------------------------------------------

 SCF Done:  E(RB3LYP) =  -1639.78284979     A.U. after    1 cycles

 The electronic state is 1-A.
 Alpha  occ. eigenvalues -- -101.62334-101.61495 -77.24722 -19.22793 -19.22575
 Alpha  occ. eigenvalues --  -19.18059 -19.17098 -19.13391  -9.53178  -9.52355
 Alpha  occ. eigenvalues --   -7.30159  -7.29322  -7.28466  -7.28430  -7.27647
 Alpha  occ. eigenvalues --   -7.27615  -6.72190  -4.88551  -4.88430  -4.88181
 Alpha  occ. eigenvalues --   -1.09294  -1.07176  -1.04049  -1.03278  -0.98167
 Alpha  occ. eigenvalues --   -0.83223  -0.82490  -0.64630  -0.61242  -0.56339
 Alpha  occ. eigenvalues --   -0.52992  -0.47235  -0.46925  -0.46040  -0.42604
 Alpha  occ. eigenvalues --   -0.42182  -0.41058  -0.39520  -0.38352  -0.37053
 Alpha  occ. eigenvalues --   -0.34906  -0.34386  -0.33269  -0.32822  -0.32247
 Alpha  occ. eigenvalues --   -0.31543
 Alpha virt. eigenvalues --   -0.15449  -0.15098  -0.02267   0.00318   0.03326
 Alpha virt. eigenvalues --    0.06046   0.08273   0.11106   0.17222   0.17791
 Alpha virt. eigenvalues --    0.18343   0.22053   0.24226   0.27249   0.28081

 Mulliken charges:
               1
     1  P    1.372108
     2  O   -0.583337
     3  O   -0.577385
     4  H    0.386173
     5  O   -0.493566
     6  O   -0.502734
     7  Cl   0.144073
     8  Cl   0.164171
     9  O   -0.520224
    10  H    0.299007
    11  H    0.311714
 Sum of Mulliken charges =   0.00000

 Dipole moment (field-independent basis, Debye):
    X=             -2.6942    Y=              3.3641    Z=             -4.7734  Tot=              6.4313
 Quadrupole moment (field-independent basis, Debye-Ang):
   XX=            -62.4013   YY=            -55.3506   ZZ=            -71.2271
   XY=             -5.7435   XZ=              3.7628   YZ=             -3.8036

 Normal termination of Gaussian 09 at Fri Jun 23 05:05:59 2017.
