 Gaussian 09, Revision D.01,

 -----------------------------------------
 # opt freq b3lyp/6-311g geom=connectivity
 -----------------------------------------

 -------------------
 Title Card Required
 -------------------
 Symbolic Z-matrix:
 Charge =  0 Multiplicity = 1

 SCF Done:  E(RB3LYP) =  -800.891474053     A.U. after   17 cycles
 SCF Done:  E(RB3LYP) =  -800.917473713     A.U. after   14 cycles
 SCF Done:  E(RB3LYP) =  -800.932589690     A.U. after   15 cycles
 SCF Done:  E(RB3LYP) =  -800.937101057     A.U. after   14 cycles
 SCF Done:  E(RB3LYP) =  -800.939049180     A.U. after   14 cycles
 SCF Done:  E(RB3LYP) =  -800.941080841     A.U. after   14 cycles
 SCF Done:  E(RB3LYP) =  -800.943145278     A.U. after   14 cycles
 SCF Done:  E(RB3LYP) =  -800.946306468     A.U. after   16 cycles
 SCF Done:  E(RB3LYP) =  -800.947794492     A.U. after   14 cycles
 SCF Done:  E(RB3LYP) =  -800.949672554     A.U. after   13 cycles
 SCF Done:  E(RB3LYP) =  -800.959060907     A.U. after   14 cycles
 SCF Done:  E(RB3LYP) =  -800.959128272     A.U. after   12 cycles
 SCF Done:  E(RB3LYP) =  -800.959149722     A.U. after   12 cycles
 SCF Done:  E(RB3LYP) =  -800.959150886     A.U. after   11 cycles
 SCF Done:  E(RB3LYP) =  -800.959163559     A.U. after   11 cycles
 SCF Done:  E(RB3LYP) =  -800.959163512     A.U. after    9 cycles
 Optimization completed.
    -- Stationary point found.
 Normal termination of Gaussian 09 at Fri Jun 23 05:36:20 2017.

 ------------------------------------------------------------------
 #N Geom=AllCheck Guess=TCheck SCRF=Check GenChk RB3LYP/6-311G Freq
 ------------------------------------------------------------------

 Structure from the checkpoint file:  "HClCO3-h2o.chk"
 -------------------
 Title Card Required
 -------------------
 Charge =  0 Multiplicity = 1

 SCF Done:  E(RB3LYP) =  -800.959163512     A.U. after    1 cycles

  Exact polarizability:  60.538   7.305  40.692   0.091  -0.040  14.300
 Approx polarizability:  95.859   9.371  57.572   0.041  -0.028  16.198

                      1                      2                      3
                      A                      A                      A
 Frequencies --     74.3205                79.4832               126.3994
 Red. masses --      7.2052                 3.7489                 2.2536
 Frc consts  --      0.0234                 0.0140                 0.0212
 IR Inten    --      7.9846                18.5400               105.6590

                      4                      5                      6
                      A                      A                      A
 Frequencies --    133.0834               205.7202               293.5022
 Red. masses --      1.8730                11.0709                 7.2555
 Frc consts  --      0.0195                 0.2760                 0.3682
 IR Inten    --    100.9523                 1.9415                 4.7328

                      7                      8                      9
                      A                      A                      A
 Frequencies --    301.5161               393.6192               493.3875
 Red. masses --      1.1170                 2.0160                 2.6183
 Frc consts  --      0.0598                 0.1840                 0.3755
 IR Inten    --    196.0222                84.5587                31.9577

                     10                     11                     12
                      A                      A                      A
 Frequencies --    629.2685               688.9599               735.4071
 Red. masses --     11.5781                12.4039                11.9425
 Frc consts  --      2.7012                 3.4689                 3.8054
 IR Inten    --      6.9566                54.4333                59.5751

                     13                     14                     15
                      A                      A                      A
 Frequencies --    825.1685               931.1926              1149.3754
 Red. masses --     13.8152                 1.0522                12.0885
 Frc consts  --      5.5423                 0.5375                 9.4091
 IR Inten    --     93.1677               265.8265               252.0069

                     16                     17                     18
                      A                      A                      A
 Frequencies --   1492.7494              1612.9281              1823.7755
 Red. masses --      1.1572                 1.1045                 7.4194
 Frc consts  --      1.5193                 1.6929                14.5399
 IR Inten    --    305.4338               130.5884               416.1201

                     19                     20                     21
                      A                      A                      A
 Frequencies --   2875.0691              3720.7241              3885.7562
 Red. masses --      1.0741                 1.0371                 1.0890
 Frc consts  --      5.2312                 8.4589                 9.6878
 IR Inten    --   1577.0475                 6.6091                86.8471

 - Thermochemistry -
 -------------------
 Temperature   298.150 Kelvin.  Pressure   1.00000 Atm.
 Atom     1 has atomic number  6 and mass  12.00000

 Molecular mass:   113.97199 amu.
 Principal axes and moments of inertia in atomic units:
                           1         2         3
     Eigenvalues --   519.154301048.427581567.57083
           X            0.99780  -0.06628   0.00038
           Y            0.06628   0.99780  -0.00039
           Z           -0.00036   0.00042   1.00000
 This molecule is an asymmetric top.
 Rotational symmetry number  1.
 Warning -- assumption of classical behavior for rotation
           may cause significant error
 Rotational temperatures (Kelvin)      0.16684     0.08261     0.05525
 Rotational constants (GHZ):           3.47631     1.72138     1.15130
 Zero-point vibrational energy     134408.9 (Joules/Mol)
                                   32.12449 (Kcal/Mol)
 Warning -- explicit consideration of   9 degrees of freedom as
           vibrations may cause significant error
 Vibrational temperatures:    106.93   114.36   181.86   191.48   295.99
          (Kelvin)            422.28   433.81   566.33   709.87   905.38
                              991.26  1058.09  1187.23  1339.78  1653.69
                             2147.73  2320.64  2624.00  4136.58  5353.29
                             5590.73

 Zero-point correction=                           0.051194 (Hartree/Particle)
 Thermal correction to Energy=                    0.059398
 Thermal correction to Enthalpy=                  0.060342
 Thermal correction to Gibbs Free Energy=         0.017503
 Sum of electronic and zero-point Energies=           -800.907970
 Sum of electronic and thermal Energies=              -800.899766
 Sum of electronic and thermal Enthalpies=            -800.898822
 Sum of electronic and thermal Free Energies=         -800.941660

                     E (Thermal)             CV                S
                      KCal/Mol        Cal/Mol-Kelvin    Cal/Mol-Kelvin
 Total                   37.273             25.718             90.161
 Electronic               0.000              0.000              0.000
 Translational            0.889              2.981             40.108
 Rotational               0.889              2.981             28.236
 Vibrational             35.495             19.757             21.818
 Vibration     1          0.599              1.966              4.036
 Vibration     2          0.600              1.963              3.904
 Vibration     3          0.611              1.927              3.000
 Vibration     4          0.613              1.920              2.901
 Vibration     5          0.640              1.832              2.081
 Vibration     6          0.688              1.686              1.454
 Vibration     7          0.694              1.671              1.408
 Vibration     8          0.761              1.484              0.986
 Vibration     9          0.849              1.265              0.675

 Normal termination of Gaussian 09 at Fri Jun 23 05:36:32 2017.

 ---------------------------------------------
 # B3LYP/6-311+G(2df,2p) geom=check guess=read
 ---------------------------------------------

 -------------------
 Title Card Required
 -------------------
 Structure from the checkpoint file:  "HClCO3-h2o.chk"
 Charge =  0 Multiplicity = 1

 SCF Done:  E(RB3LYP) =  -801.124289867     A.U. after   13 cycles
 Normal termination of Gaussian 09 at Fri Jun 23 05:36:59 2017.

 --------------------------------------------------
 # B3LYP/6-311G** geom=check guess=read pop=nboread
 --------------------------------------------------

 -------------------
 Title Card Required
 -------------------
 Structure from the checkpoint file:  "HClCO3-h2o.chk"
 Charge =  0 Multiplicity = 1

 SCF Done:  E(RB3LYP) =  -801.084588102     A.U. after   12 cycles

 Summary of Natural Population Analysis:

                                       Natural Population
                Natural  -----------------------------------------------
    Atom  No    Charge         Core      Valence    Rydberg      Total
 -----------------------------------------------------------------------
      C    1    1.04413      1.99967     2.90405    0.05216     4.95587
      O    2   -0.57186      1.99973     6.56281    0.00932     8.57186
      O    3   -0.68141      1.99970     6.67240    0.00932     8.68141
      H    4    0.51403      0.00000     0.47950    0.00647     0.48597
      O    5   -0.57246      1.99983     6.56553    0.00711     8.57246
     Cl    6    0.19884      9.99991     6.78743    0.01382    16.80116
      O    7   -0.91879      1.99977     6.90979    0.00923     8.91879
      H    8    0.49850      0.00000     0.49581    0.00569     0.50150
      H    9    0.48903      0.00000     0.50633    0.00464     0.51097
 =======================================================================
   * Total *    0.00000     19.99861    37.88365    0.11774    58.00000

 Normal termination of Gaussian 09 at Fri Jun 23 05:37:08 2017.
 Gaussian 09:  AM64L-G09RevD.01 24-Apr-2013

 -------------------------------------------------
 # B3LYP/6-311G** geom=check guess=read output=wfx
 -------------------------------------------------

 -------------------
 Title Card Required
 -------------------
 Structure from the checkpoint file:  "HClCO3-h2o.chk"
 Charge =  0 Multiplicity = 1

                         Standard orientation:
 ---------------------------------------------------------------------
 Center     Atomic      Atomic             Coordinates (Angstroms)
 Number     Number       Type             X           Y           Z
 ---------------------------------------------------------------------
      1          6           0        0.118153    1.017447    0.000018
      2          8           0       -0.722330    1.886092    0.003259
      3          8           0        1.446778    1.137736   -0.002784
      4          1           0        1.974796    0.266965   -0.004298
      5          8           0       -0.150148   -0.406836   -0.001614
      6         17           0       -1.927004   -0.860006    0.000075
      7          8           0        2.530343   -1.165015   -0.002741
      8          1           0        1.821595   -1.823480    0.000288
      9          1           0        3.416617   -1.543868    0.033666
 ---------------------------------------------------------------------

 SCF Done:  E(RB3LYP) =  -801.084588102     A.U. after    1 cycles

 The electronic state is 1-A.
 Alpha  occ. eigenvalues -- -101.60835 -19.22010 -19.17405 -19.16677 -19.11966
 Alpha  occ. eigenvalues --  -10.36025  -9.51700  -7.28654  -7.26985  -7.26978
 Alpha  occ. eigenvalues --   -1.13217  -1.06839  -1.03682  -1.03054  -0.82480
 Alpha  occ. eigenvalues --   -0.64116  -0.60443  -0.56910  -0.48619  -0.48146
 Alpha  occ. eigenvalues --   -0.46516  -0.43008  -0.39051  -0.38456  -0.37177
 Alpha  occ. eigenvalues --   -0.33588  -0.32770  -0.31238  -0.30706
 Alpha virt. eigenvalues --   -0.13587  -0.00507   0.02230   0.07127   0.12057
 Alpha virt. eigenvalues --    0.16812   0.25600   0.27173   0.27621   0.29445
 Alpha virt. eigenvalues --    0.32046   0.33214   0.34425   0.38770   0.41147

 Mulliken charges:
               1
     1  C    0.547352
     2  O   -0.315885
     3  O   -0.345781
     4  H    0.330209
     5  O   -0.437604
     6  Cl   0.143448
     7  O   -0.516660
     8  H    0.300718
     9  H    0.294202
 Sum of Mulliken charges =   0.00000

 Dipole moment (field-independent basis, Debye):
    X=              3.4664    Y=             -4.7940    Z=              0.0700  Tot=              5.9164
 Quadrupole moment (field-independent basis, Debye-Ang):
   XX=            -29.0899   YY=            -41.9635   ZZ=            -41.4987
   XY=             -5.4528   XZ=              0.2707   YZ=             -0.1336

 Normal termination of Gaussian 09 at Fri Jun 23 05:37:10 2017.
