 Gaussian 09, Revision D.01,

 -----------------------------------------
 # opt freq b3lyp/6-311g geom=connectivity
 -----------------------------------------

 -------------------
 Title Card Required
 -------------------
 Symbolic Z-matrix:
 Charge =  0 Multiplicity = 1

 SCF Done:  E(RB3LYP) =  -1235.70274177     A.U. after   19 cycles
 SCF Done:  E(RB3LYP) =  -1235.91519425     A.U. after   16 cycles
 SCF Done:  E(RB3LYP) =  -1235.98380160     A.U. after   17 cycles
 SCF Done:  E(RB3LYP) =  -1236.00078655     A.U. after   18 cycles
 SCF Done:  E(RB3LYP) =  -1236.02057139     A.U. after   17 cycles
 SCF Done:  E(RB3LYP) =  -1236.03163102     A.U. after   16 cycles
 SCF Done:  E(RB3LYP) =  -1236.03676210     A.U. after   15 cycles
 SCF Done:  E(RB3LYP) =  -1236.03837992     A.U. after   16 cycles
 SCF Done:  E(RB3LYP) =  -1236.03864014     A.U. after   14 cycles
 SCF Done:  E(RB3LYP) =  -1236.03882143     A.U. after   14 cycles
 SCF Done:  E(RB3LYP) =  -1236.04074035     A.U. after   13 cycles
 SCF Done:  E(RB3LYP) =  -1236.04074400     A.U. after   13 cycles
 SCF Done:  E(RB3LYP) =  -1236.04074646     A.U. after   12 cycles
 SCF Done:  E(RB3LYP) =  -1236.04074809     A.U. after   12 cycles
 SCF Done:  E(RB3LYP) =  -1236.04074871     A.U. after   10 cycles
 SCF Done:  E(RB3LYP) =  -1236.04074879     A.U. after    9 cycles
 Optimization completed.
    -- Stationary point found.
 Normal termination of Gaussian 09 at Fri Jun 23 05:11:15 2017.

 ------------------------------------------------------------------
 #N Geom=AllCheck Guess=TCheck SCRF=Check GenChk RB3LYP/6-311G Freq
 ------------------------------------------------------------------

 Structure from the checkpoint file:  "HClSO4-h2o.chk"
 -------------------
 Title Card Required
 -------------------
 Charge =  0 Multiplicity = 1

 SCF Done:  E(RB3LYP) =  -1236.04074879     A.U. after    1 cycles

  Exact polarizability:  83.087   6.726  53.997  -7.370  -0.443  45.066
 Approx polarizability: 135.025   8.218  99.917 -30.037   4.579  99.068

                      1                      2                      3
                      A                      A                      A
 Frequencies --     34.6136                62.0227               120.3010
 Red. masses --      6.3314                10.7381                14.3968
 Frc consts  --      0.0045                 0.0243                 0.1228
 IR Inten    --      8.7416                 5.3696                 1.3194

                      4                      5                      6
                      A                      A                      A
 Frequencies --    139.9164               164.8532               217.4674
 Red. masses --      4.5086                 1.1670                13.1461
 Frc consts  --      0.0520                 0.0187                 0.3663
 IR Inten    --     23.1912               196.4984                 0.9347

                      7                      8                      9
                      A                      A                      A
 Frequencies --    219.5250               275.8571               348.7201
 Red. masses --     13.1594                10.7959                14.7552
 Frc consts  --      0.3736                 0.4840                 1.0572
 IR Inten    --      0.5022                 4.7338                50.7417

                     10                     11                     12
                      A                      A                      A
 Frequencies --    362.7028               396.5897               434.0354
 Red. masses --     10.0519                 6.5212                 1.1395
 Frc consts  --      0.7791                 0.6043                 0.1265
 IR Inten    --     13.6746                34.2525               114.5262

                     13                     14                     15
                      A                      A                      A
 Frequencies --    513.1184               519.3207               641.9182
 Red. masses --      3.3564                 1.6621                14.8262
 Frc consts  --      0.5207                 0.2641                 3.5995
 IR Inten    --     56.0658               269.0101                85.1185

                     16                     17                     18
                      A                      A                      A
 Frequencies --    681.7078               785.8154               911.5828
 Red. masses --     18.5480                14.9307                 1.4464
 Frc consts  --      5.0786                 5.4322                 0.7082
 IR Inten    --      9.6427                80.7614               163.7809

                     19                     20                     21
                      A                      A                      A
 Frequencies --    929.8602              1529.1213              1602.4179
 Red. masses --      3.3288                 1.0831                 1.1037
 Frc consts  --      1.6958                 1.4921                 1.6698
 IR Inten    --    166.1551                81.4016               183.9360

                     22                     23                     24
                      A                      A                      A
 Frequencies --   2562.2773              3646.5167              3865.7504
 Red. masses --      1.0712                 1.0435                 1.0831
 Frc consts  --      4.1435                 8.1753                 9.5362
 IR Inten    --   1722.2931                56.5362               108.1033

 - Thermochemistry -
 -------------------
 Temperature   298.150 Kelvin.  Pressure   1.00000 Atm.
 Atom     1 has atomic number 16 and mass  31.97207

 Molecular mass:   149.93897 amu.
 Principal axes and moments of inertia in atomic units:
                           1         2         3
     Eigenvalues --   784.901801731.833382022.49956
           X            0.99887  -0.04748   0.00020
           Y            0.04748   0.99886  -0.00478
           Z            0.00003   0.00479   0.99999
 This molecule is an asymmetric top.
 Rotational symmetry number  1.
 Warning -- assumption of classical behavior for rotation
           may cause significant error
 Rotational temperatures (Kelvin)      0.11035     0.05001     0.04283
 Rotational constants (GHZ):           2.29932     1.04210     0.89233
 Zero-point vibrational energy     125404.6 (Joules/Mol)
                                   29.97242 (Kcal/Mol)
 Warning -- explicit consideration of  14 degrees of freedom as
           vibrations may cause significant error
 Vibrational temperatures:     49.80    89.24   173.09   201.31   237.19
          (Kelvin)            312.89   315.85   396.90   501.73   521.85
                              570.60   624.48   738.26   747.19   923.58
                              980.82  1130.61  1311.56  1337.86  2200.06
                             2305.52  3686.54  5246.52  5561.95

 Zero-point correction=                           0.047764 (Hartree/Particle)
 Thermal correction to Energy=                    0.057939
 Thermal correction to Enthalpy=                  0.058884
 Thermal correction to Gibbs Free Energy=         0.011035
 Sum of electronic and zero-point Energies=          -1235.992985
 Sum of electronic and thermal Energies=             -1235.982809
 Sum of electronic and thermal Enthalpies=           -1235.981865
 Sum of electronic and thermal Free Energies=        -1236.029713

                     E (Thermal)             CV                S
                      KCal/Mol        Cal/Mol-Kelvin    Cal/Mol-Kelvin
 Total                   36.357             32.970            100.705
 Electronic               0.000              0.000              0.000
 Translational            0.889              2.981             40.925
 Rotational               0.889              2.981             29.398
 Vibrational             34.580             27.008             30.381
 Vibration     1          0.594              1.983              5.546
 Vibration     2          0.597              1.972              4.392
 Vibration     3          0.609              1.932              3.096
 Vibration     4          0.615              1.913              2.805
 Vibration     5          0.623              1.886              2.493
 Vibration     6          0.646              1.814              1.980
 Vibration     7          0.647              1.811              1.963
 Vibration     8          0.678              1.718              1.559
 Vibration     9          0.726              1.578              1.172
 Vibration    10          0.737              1.549              1.110
 Vibration    11          0.763              1.477              0.975
 Vibration    12          0.795              1.396              0.846
 Vibration    13          0.868              1.221              0.626
 Vibration    14          0.874              1.207              0.612

 Optimization completed.
    -- Stationary point found.
 Normal termination of Gaussian 09 at Fri Jun 23 05:11:33 2017.

 ---------------------------------------------
 # B3LYP/6-311+G(2df,2p) geom=check guess=read
 ---------------------------------------------

 -------------------
 Title Card Required
 -------------------
 Structure from the checkpoint file:  "HClSO4-h2o.chk"
 Charge =  0 Multiplicity = 1

 SCF Done:  E(RB3LYP) =  -1236.35127314     A.U. after   15 cycles
 Normal termination of Gaussian 09 at Fri Jun 23 05:12:24 2017.

 --------------------------------------------------
 # B3LYP/6-311G** geom=check guess=read pop=nboread
 --------------------------------------------------

 -------------------
 Title Card Required
 -------------------
 Structure from the checkpoint file:  "HClSO4-h2o.chk"
 Charge =  0 Multiplicity = 1

 SCF Done:  E(RB3LYP) =  -1236.26932536     A.U. after   13 cycles

 Summary of Natural Population Analysis:

                                       Natural Population
                Natural  -----------------------------------------------
    Atom  No    Charge         Core      Valence    Rydberg      Total
 -----------------------------------------------------------------------
      S    1    2.07247      9.99949     3.77997    0.14807    13.92753
     Cl    2    0.21902      9.99993     6.76572    0.01533    16.78098
      O    3   -0.78899      1.99991     6.78176    0.00733     8.78899
      O    4   -0.59098      1.99996     6.58427    0.00675     8.59098
      O    5   -0.71556      1.99990     6.70796    0.00770     8.71556
      O    6   -0.78526      1.99983     6.77742    0.00801     8.78526
      H    7    0.51472      0.00000     0.47781    0.00747     0.48528
      O    8   -0.92938      1.99977     6.92087    0.00875     8.92938
      H    9    0.51178      0.00000     0.48253    0.00569     0.48822
      H   10    0.49220      0.00000     0.50321    0.00458     0.50780
 =======================================================================
   * Total *    0.00000     29.99880    45.78152    0.21968    76.00000

 Normal termination of Gaussian 09 at Fri Jun 23 05:12:37 2017.
 Gaussian 09:  AM64L-G09RevD.01 24-Apr-2013

 -------------------------------------------------
 # B3LYP/6-311G** geom=check guess=read output=wfx
 -------------------------------------------------

 -------------------
 Title Card Required
 -------------------
 Structure from the checkpoint file:  "HClSO4-h2o.chk"
 Charge =  0 Multiplicity = 1

                         Standard orientation:
 ---------------------------------------------------------------------
 Center     Atomic      Atomic             Coordinates (Angstroms)
 Number     Number       Type             X           Y           Z
 ---------------------------------------------------------------------
      1         16           0        0.296348    0.717028   -0.020982
      2         17           0       -2.452646   -0.794119    0.041342
      3          8           0        1.440166    0.778928   -1.168059
      4          8           0       -0.903807   -0.485204   -0.880781
      5          8           0       -0.472224    1.999005    0.532250
      6          8           0        0.852939   -0.234136    1.340773
      7          1           0        1.638992   -0.814873    0.977317
      8          8           0        2.735702   -1.337792    0.086216
      9          1           0        2.803190   -0.797061   -0.719984
     10          1           0        3.289031   -2.126895    0.092389
 ---------------------------------------------------------------------

 SCF Done:  E(RB3LYP) =  -1236.26932536     A.U. after    1 cycles

 The electronic state is 1-A.
 Alpha  occ. eigenvalues -- -101.61880 -89.13777 -19.24265 -19.19974 -19.18929
 Alpha  occ. eigenvalues --  -19.18543 -19.17607  -9.52734  -8.19396  -7.29675
 Alpha  occ. eigenvalues --   -7.28062  -7.27984  -6.15696  -6.15642  -6.15518
 Alpha  occ. eigenvalues --   -1.11973  -1.07047  -1.03510  -1.02558  -1.00982
 Alpha  occ. eigenvalues --   -0.82471  -0.70492  -0.60940  -0.57429  -0.53294
 Alpha  occ. eigenvalues --   -0.50822  -0.48668  -0.45457  -0.41976  -0.41273
 Alpha  occ. eigenvalues --   -0.39339  -0.37420  -0.37354  -0.35833  -0.35019
 Alpha  occ. eigenvalues --   -0.34378  -0.33632  -0.31896
 Alpha virt. eigenvalues --   -0.16021  -0.11401  -0.06054  -0.02035   0.00064
 Alpha virt. eigenvalues --    0.03914   0.09469   0.14825   0.16996   0.18626
 Alpha virt. eigenvalues --    0.22248   0.26273   0.28476   0.29047   0.31167

 Mulliken charges:
               1
     1  S    1.196591
     2  Cl   0.161790
     3  O   -0.497537
     4  O   -0.427129
     5  O   -0.409468
     6  O   -0.472600
     7  H    0.366589
     8  O   -0.528351
     9  H    0.312943
    10  H    0.297173
 Sum of Mulliken charges =   0.00000

 Dipole moment (field-independent basis, Debye):
    X=              3.1277    Y=             -3.6778    Z=              0.0309  Tot=              4.8280
 Quadrupole moment (field-independent basis, Debye-Ang):
   XX=            -40.3549   YY=            -53.7831   ZZ=            -58.4432
   XY=             -7.4160   XZ=             -1.7998   YZ=             -0.5998

 Normal termination of Gaussian 09 at Fri Jun 23 05:12:41 2017.
