 Gaussian 09, Revision D.01,

 -----------------------------------------
 # opt freq b3lyp/6-311g geom=connectivity
 -----------------------------------------

 -------------------
 Title Card Required
 -------------------
 Symbolic Z-matrix:
 Charge = -1 Multiplicity = 1

 SCF Done:  E(RB3LYP) =  -1235.36001461     A.U. after   22 cycles
 SCF Done:  E(RB3LYP) =  -1235.42491619     A.U. after   17 cycles
 SCF Done:  E(RB3LYP) =  -1235.49550560     A.U. after   17 cycles
 SCF Done:  E(RB3LYP) =  -1235.51240501     A.U. after   18 cycles
 SCF Done:  E(RB3LYP) =  -1235.52303336     A.U. after   16 cycles
 SCF Done:  E(RB3LYP) =  -1235.53496072     A.U. after   17 cycles
 SCF Done:  E(RB3LYP) =  -1235.54062998     A.U. after   17 cycles
 SCF Done:  E(RB3LYP) =  -1235.54504302     A.U. after   16 cycles
 SCF Done:  E(RB3LYP) =  -1235.54645767     A.U. after   14 cycles
 SCF Done:  E(RB3LYP) =  -1235.54741329     A.U. after   14 cycles
 SCF Done:  E(RB3LYP) =  -1235.55374528     A.U. after   10 cycles
 SCF Done:  E(RB3LYP) =  -1235.55374699     A.U. after   10 cycles
 SCF Done:  E(RB3LYP) =  -1235.55374698     A.U. after    9 cycles
 SCF Done:  E(RB3LYP) =  -1235.55374782     A.U. after   10 cycles
 SCF Done:  E(RB3LYP) =  -1235.55374708     A.U. after   10 cycles
 SCF Done:  E(RB3LYP) =  -1235.55374736     A.U. after    9 cycles
 Optimization completed.
    -- Stationary point found.
 Normal termination of Gaussian 09 at Wed Jun 21 02:06:58 2017.

 ------------------------------------------------------------------
 #N Geom=AllCheck Guess=TCheck SCRF=Check GenChk RB3LYP/6-311G Freq
 ------------------------------------------------------------------

 Structure from the checkpoint file:  "HClSO4-h2o-A.chk"
 -------------------
 Title Card Required
 -------------------
 Charge = -1 Multiplicity = 1

 SCF Done:  E(RB3LYP) =  -1235.55374736     A.U. after    1 cycles

  Exact polarizability:  82.174   4.804  59.612  -0.009  -0.001  41.400
 Approx polarizability: 146.874  -7.679 101.689  -0.037  -0.005  90.858

                      1                      2                      3
                      A                      A                      A
 Frequencies --     10.6756                53.3649                86.4722
 Red. masses --     12.7336                17.8451                12.1965
 Frc consts  --      0.0009                 0.0299                 0.0537
 IR Inten    --      0.4818                 1.0523                 2.3929

                      4                      5                      6
                      A                      A                      A
 Frequencies --    123.5185               157.2194               215.3758
 Red. masses --     12.0429                 8.8028                14.3471
 Frc consts  --      0.1083                 0.1282                 0.3921
 IR Inten    --      1.4752                 3.0539                 0.4888

                      7                      8                      9
                      A                      A                      A
 Frequencies --    243.7943               287.7162               335.8403
 Red. masses --     12.4629                 1.0248                12.5639
 Frc consts  --      0.4364                 0.0500                 0.8349
 IR Inten    --      5.0147                11.0016                 8.5532

                     10                     11                     12
                      A                      A                      A
 Frequencies --    359.9858               364.3272               391.0941
 Red. masses --     16.0961                 1.2036                 5.8392
 Frc consts  --      1.2290                 0.0941                 0.5262
 IR Inten    --     13.0230               112.6158                 1.5289

                     13                     14                     15
                      A                      A                      A
 Frequencies --    487.2545               621.8146               672.3393
 Red. masses --     20.2747                 1.0843                18.5084
 Frc consts  --      2.8361                 0.2470                 4.9294
 IR Inten    --    214.8363               325.6747                 2.5455

                     16                     17                     18
                      A                      A                      A
 Frequencies --    699.9501               873.4442               887.3504
 Red. masses --     16.6668                20.7828                20.3250
 Frc consts  --      4.8110                 9.3417                 9.4291
 IR Inten    --     53.9404               131.8633               132.1855

                     19                     20                     21
                      A                      A                      A
 Frequencies --   1718.7864              3592.4145              3691.0985
 Red. masses --      1.0883                 1.0419                 1.0792
 Frc consts  --      1.8943                 7.9220                 8.6629
 IR Inten    --    348.3535                34.4461                14.1936

 - Thermochemistry -
 -------------------
 Temperature   298.150 Kelvin.  Pressure   1.00000 Atm.
 Atom     1 has atomic number 16 and mass  31.97207

 Molecular mass:   148.93115 amu.
 Principal axes and moments of inertia in atomic units:
                           1         2         3
     Eigenvalues --  1161.431891325.995532054.34662
           X            0.98812  -0.15371   0.00000
           Y            0.15371   0.98812   0.00000
           Z            0.00000   0.00000   1.00000
 This molecule is an asymmetric top.
 Rotational symmetry number  1.
 Warning -- assumption of classical behavior for rotation
           may cause significant error
 Rotational temperatures (Kelvin)      0.07458     0.06532     0.04216
 Rotational constants (GHZ):           1.55389     1.36105     0.87850
 Zero-point vibrational energy      94946.6 (Joules/Mol)
                                   22.69279 (Kcal/Mol)
 Warning -- explicit consideration of  13 degrees of freedom as
           vibrations may cause significant error
 Vibrational temperatures:     15.36    76.78   124.41   177.72   226.20
          (Kelvin)            309.88   350.77   413.96   483.20   517.94
                              524.18   562.70   701.05   894.65   967.35
                             1007.07  1256.69  1276.70  2472.95  5168.68
                             5310.66

 Zero-point correction=                           0.036163 (Hartree/Particle)
 Thermal correction to Energy=                    0.046423
 Thermal correction to Enthalpy=                  0.047367
 Thermal correction to Gibbs Free Energy=        -0.002118
 Sum of electronic and zero-point Energies=          -1235.517584
 Sum of electronic and thermal Energies=             -1235.507325
 Sum of electronic and thermal Enthalpies=           -1235.506380
 Sum of electronic and thermal Free Energies=        -1235.555866

                     E (Thermal)             CV                S
                      KCal/Mol        Cal/Mol-Kelvin    Cal/Mol-Kelvin
 Total                   29.131             32.254            104.150
 Electronic               0.000              0.000              0.000
 Translational            0.889              2.981             40.905
 Rotational               0.889              2.981             29.538
 Vibrational             27.353             26.292             33.707
 Vibration     1          0.593              1.987              7.881
 Vibration     2          0.596              1.976              4.689
 Vibration     3          0.601              1.959              3.738
 Vibration     4          0.610              1.929              3.045
 Vibration     5          0.621              1.895              2.583
 Vibration     6          0.645              1.818              1.998
 Vibration     7          0.659              1.773              1.775
 Vibration     8          0.685              1.697              1.487
 Vibration     9          0.717              1.604              1.232
 Vibration    10          0.734              1.555              1.122
 Vibration    11          0.738              1.546              1.104
 Vibration    12          0.759              1.489              0.996
 Vibration    13          0.843              1.278              0.691

 Normal termination of Gaussian 09 at Wed Jun 21 02:07:44 2017.

 ---------------------------------------------
 # B3LYP/6-311+G(2df,2p) geom=check guess=read
 ---------------------------------------------

 -------------------
 Title Card Required
 -------------------
 Structure from the checkpoint file:  "HClSO4-h2o-A.chk"
 Charge = -1 Multiplicity = 1

 SCF Done:  E(RB3LYP) =  -1235.86836398     A.U. after   14 cycles
 Normal termination of Gaussian 09 at Wed Jun 21 02:08:54 2017.

 --------------------------------------------------
 # B3LYP/6-311G** geom=check guess=read pop=nboread
 --------------------------------------------------

 -------------------
 Title Card Required
 -------------------
 Structure from the checkpoint file:  "HClSO4-h2o-A.chk"
 Charge = -1 Multiplicity = 1

 SCF Done:  E(RB3LYP) =  -1235.77808260     A.U. after   12 cycles

 Summary of Natural Population Analysis:

                                       Natural Population
                Natural  -----------------------------------------------
    Atom  No    Charge         Core      Valence    Rydberg      Total
 -----------------------------------------------------------------------
      S    1    2.07011      9.99952     3.76692    0.16344    13.92989
     Cl    2    0.09093      9.99994     6.89416    0.01497    16.90907
      O    3   -0.85593      1.99991     6.84883    0.00720     8.85593
      O    4   -0.66065      1.99997     6.65310    0.00758     8.66065
      O    5   -0.81734      1.99992     6.81043    0.00699     8.81734
      O    6   -0.81734      1.99992     6.81043    0.00699     8.81734
      O    7   -0.94335      1.99983     6.93504    0.00848     8.94335
      H    8    0.47277      0.00000     0.52114    0.00609     0.52723
      H    9    0.46080      0.00000     0.53284    0.00635     0.53920
 =======================================================================
   * Total *   -1.00000     29.99900    45.77291    0.22809    76.00000

 Normal termination of Gaussian 09 at Wed Jun 21 02:09:47 2017.
 Gaussian 09:  AM64L-G09RevD.01 24-Apr-2013

 -------------------------------------------------
 # B3LYP/6-311G** geom=check guess=read output=wfx
 -------------------------------------------------

 -------------------
 Title Card Required
 -------------------
 Structure from the checkpoint file:  "HClSO4-h2o-A.chk"
 Charge = -1 Multiplicity = 1

                         Standard orientation:
 ---------------------------------------------------------------------
 Center     Atomic      Atomic             Coordinates (Angstroms)
 Number     Number       Type             X           Y           Z
 ---------------------------------------------------------------------
      1         16           0        0.546733    0.924261    0.000115
      2         17           0       -2.290631   -0.622772    0.000013
      3          8           0        2.002384    0.181602   -0.001583
      4          8           0       -0.460052   -0.803850   -0.001255
      5          8           0        0.112461    1.665312   -1.375589
      6          8           0        0.113881    1.662178    1.377969
      7          8           0        1.656948   -2.691853    0.000226
      8          1           0        2.085315   -1.813305   -0.000286
      9          1           0        0.702701   -2.494857    0.000069
 ---------------------------------------------------------------------

 SCF Done:  E(RB3LYP) =  -1235.77808260     A.U. after    1 cycles

 The electronic state is 1-A.
 Alpha  occ. eigenvalues -- -101.45815 -88.94512 -19.05381 -18.99421 -18.99389
 Alpha  occ. eigenvalues --  -18.99389 -18.93475  -9.36758  -8.00089  -7.13543
 Alpha  occ. eigenvalues --   -7.12153  -7.12099  -5.96465  -5.96257  -5.96238
 Alpha  occ. eigenvalues --   -0.92289  -0.84709  -0.82933  -0.81339  -0.81325
 Alpha  occ. eigenvalues --   -0.66062  -0.49315  -0.36191  -0.34903  -0.31876
 Alpha  occ. eigenvalues --   -0.31778  -0.29007  -0.24905  -0.22797  -0.21235
 Alpha  occ. eigenvalues --   -0.18934  -0.18853  -0.16865  -0.16636  -0.16045
 Alpha  occ. eigenvalues --   -0.14892  -0.13985  -0.13491
 Alpha virt. eigenvalues --    0.00956   0.06612   0.11321   0.21853   0.22316
 Alpha virt. eigenvalues --    0.23653   0.30199   0.32036   0.35738   0.36744
 Alpha virt. eigenvalues --    0.40098   0.42669   0.43097   0.51187   0.55288

 Mulliken charges:
               1
     1  S    1.136001
     2  Cl   0.019286
     3  O   -0.565543
     4  O   -0.500633
     5  O   -0.524001
     6  O   -0.523995
     7  O   -0.555126
     8  H    0.265997
     9  H    0.248014
 Sum of Mulliken charges =  -1.00000

 Dipole moment (field-independent basis, Debye):
    X=             -2.8444    Y=              0.1163    Z=             -0.0003  Tot=              2.8467
 Quadrupole moment (field-independent basis, Debye-Ang):
   XX=            -65.4415   YY=            -76.4754   ZZ=            -64.2414
   XY=              6.5297   XZ=             -0.0020   YZ=              0.0031

 Normal termination of Gaussian 09 at Wed Jun 21 02:09:54 2017.
