 Gaussian 09, Revision D.01,

 -----------------------------------------
 # opt freq b3lyp/6-311g geom=connectivity
 -----------------------------------------

 -------------------
 Title Card Required
 -------------------
 Symbolic Z-matrix:
 Charge = -1 Multiplicity = 1

 SCF Done:  E(RB3LYP) =  -841.802347589     A.U. after   17 cycles
 SCF Done:  E(RB3LYP) =  -841.845710616     A.U. after   15 cycles
 SCF Done:  E(RB3LYP) =  -841.870705429     A.U. after   16 cycles
 SCF Done:  E(RB3LYP) =  -841.871999682     A.U. after   14 cycles
 SCF Done:  E(RB3LYP) =  -841.872197650     A.U. after   12 cycles
 SCF Done:  E(RB3LYP) =  -841.872342490     A.U. after   13 cycles
 SCF Done:  E(RB3LYP) =  -841.872424613     A.U. after   13 cycles
 SCF Done:  E(RB3LYP) =  -841.872570990     A.U. after   14 cycles
 SCF Done:  E(RB3LYP) =  -841.872725485     A.U. after   14 cycles
 SCF Done:  E(RB3LYP) =  -841.872731824     A.U. after   15 cycles
 SCF Done:  E(RB3LYP) =  -841.873235952     A.U. after   13 cycles
 SCF Done:  E(RB3LYP) =  -841.873263235     A.U. after   14 cycles
 SCF Done:  E(RB3LYP) =  -841.873268772     A.U. after   12 cycles
 SCF Done:  E(RB3LYP) =  -841.873273573     A.U. after   13 cycles
 SCF Done:  E(RB3LYP) =  -841.873275595     A.U. after   13 cycles
 SCF Done:  E(RB3LYP) =  -841.873275697     A.U. after    9 cycles
 Optimization completed.
    -- Stationary point found.
 Normal termination of Gaussian 09 at Wed Jun 21 17:42:05 2017.

 ------------------------------------------------------------------
 #N Geom=AllCheck Guess=TCheck SCRF=Check GenChk RB3LYP/6-311G Freq
 ------------------------------------------------------------------

 Structure from the checkpoint file:  "HF2PO4-A.chk"
 -------------------
 Title Card Required
 -------------------
 Charge = -1 Multiplicity = 1

 SCF Done:  E(RB3LYP) =  -841.873275697     A.U. after    1 cycles

  Exact polarizability:  46.298   0.001  37.183  -1.954  -0.004  31.412
 Approx polarizability:  75.013  -0.001  68.821  -4.121  -0.012  54.369

                      1                      2                      3
                      A                      A                      A
 Frequencies --     10.8591               167.7027               258.9355
 Red. masses --     16.9771                16.3368                17.5436
 Frc consts  --      0.0012                 0.2707                 0.6930
 IR Inten    --      0.0074                 1.5987                 0.3599

                      4                      5                      6
                      A                      A                      A
 Frequencies --    289.7845               357.5569               361.2941
 Red. masses --     16.9565                17.7540                17.8446
 Frc consts  --      0.8390                 1.3373                 1.3724
 IR Inten    --      2.7509                21.5711                14.5620

                      7                      8                      9
                      A                      A                      A
 Frequencies --    375.8388               408.9325               512.4382
 Red. masses --     19.0782                17.4944                19.4594
 Frc consts  --      1.5878                 1.7237                 3.0107
 IR Inten    --     21.6975                 4.2061                55.4048

                     10                     11                     12
                      A                      A                      A
 Frequencies --    659.8569               692.7192               726.1182
 Red. masses --     23.6370                23.2840                16.1548
 Frc consts  --      6.0638                 6.5830                 5.0184
 IR Inten    --    147.2678               228.4559                28.6981

                     13                     14                     15
                      A                      A                      A
 Frequencies --    795.0326               852.9119              1035.6050
 Red. masses --     16.0094                16.2701                20.1864
 Frc consts  --      5.9620                 6.9735                12.7555
 IR Inten    --      4.2661                 8.5776               157.1427

 - Thermochemistry -
 -------------------
 Temperature   298.150 Kelvin.  Pressure   1.00000 Atm.
 Atom     1 has atomic number 15 and mass  30.97376

 Molecular mass:   132.95023 amu.
 Principal axes and moments of inertia in atomic units:
                           1         2         3
     Eigenvalues --   576.72462 902.629421004.51919
           X            0.99990   0.00002  -0.01418
           Y           -0.00002   1.00000  -0.00006
           Z            0.01418   0.00006   0.99990
 This molecule is an asymmetric top.
 Rotational symmetry number  1.
 Warning -- assumption of classical behavior for rotation
           may cause significant error
 Rotational temperatures (Kelvin)      0.15018     0.09596     0.08622
 Rotational constants (GHZ):           3.12929     1.99943     1.79662
 Zero-point vibrational energy      44893.4 (Joules/Mol)
                                   10.72977 (Kcal/Mol)
 Warning -- explicit consideration of   9 degrees of freedom as
           vibrations may cause significant error
 Vibrational temperatures:     15.62   241.29   372.55   416.93   514.44
          (Kelvin)            519.82   540.75   588.36   737.28   949.39
                              996.67  1044.72  1143.87  1227.15  1490.00

 Zero-point correction=                           0.017099 (Hartree/Particle)
 Thermal correction to Energy=                    0.024447
 Thermal correction to Enthalpy=                  0.025392
 Thermal correction to Gibbs Free Energy=        -0.016440
 Sum of electronic and zero-point Energies=           -841.856177
 Sum of electronic and thermal Energies=              -841.848828
 Sum of electronic and thermal Enthalpies=            -841.847884
 Sum of electronic and thermal Free Energies=         -841.889716

                     E (Thermal)             CV                S
                      KCal/Mol        Cal/Mol-Kelvin    Cal/Mol-Kelvin
 Total                   15.341             24.675             88.042
 Electronic               0.000              0.000              0.000
 Translational            0.889              2.981             40.567
 Rotational               0.889              2.981             27.749
 Vibrational             13.563             18.713             19.725
 Vibration     1          0.593              1.987              7.847
 Vibration     2          0.624              1.882              2.461
 Vibration     3          0.668              1.748              1.669
 Vibration     4          0.686              1.693              1.475
 Vibration     5          0.733              1.560              1.133
 Vibration     6          0.735              1.552              1.117
 Vibration     7          0.747              1.522              1.056
 Vibration     8          0.773              1.451              0.930
 Vibration     9          0.868              1.222              0.628

 Normal termination of Gaussian 09 at Wed Jun 21 17:42:30 2017.

 ---------------------------------------------
 # B3LYP/6-311+G(2df,2p) geom=check guess=read
 ---------------------------------------------

 -------------------
 Title Card Required
 -------------------
 Structure from the checkpoint file:  "HF2PO4-A.chk"
 Charge = -1 Multiplicity = 1

 SCF Done:  E(RB3LYP) =  -842.134730764     A.U. after   13 cycles
 Normal termination of Gaussian 09 at Wed Jun 21 17:43:15 2017.

 --------------------------------------------------
 # B3LYP/6-311G** geom=check guess=read pop=nboread
 --------------------------------------------------

 -------------------
 Title Card Required
 -------------------
 Structure from the checkpoint file:  "HF2PO4-A.chk"
 Charge = -1 Multiplicity = 1

 SCF Done:  E(RB3LYP) =  -842.054561849     A.U. after   12 cycles

 Summary of Natural Population Analysis:

                                       Natural Population
                Natural  -----------------------------------------------
    Atom  No    Charge         Core      Valence    Rydberg      Total
 -----------------------------------------------------------------------
      P    1    2.27189      9.99941     2.58680    0.14190    12.72811
      O    2   -0.06920      1.99994     6.05813    0.01112     8.06920
      O    3   -1.03509      1.99986     7.02806    0.00717     9.03509
      F    4   -0.57569      1.99997     7.57313    0.00259     9.57569
      O    5   -0.50809      1.99994     6.49804    0.01011     8.50809
      O    6   -0.50805      1.99994     6.49800    0.01011     8.50805
      F    7   -0.57578      1.99997     7.57322    0.00259     9.57578
 =======================================================================
   * Total *   -1.00000     21.99904    43.81537    0.18559    66.00000

 Normal termination of Gaussian 09 at Wed Jun 21 17:44:04 2017.
 Gaussian 09:  AM64L-G09RevD.01 24-Apr-2013

 -------------------------------------------------
 # B3LYP/6-311G** geom=check guess=read output=wfx
 -------------------------------------------------

 -------------------
 Title Card Required
 -------------------
 Structure from the checkpoint file:  "HF2PO4-A.chk"
 Charge = -1 Multiplicity = 1

                         Standard orientation:
 ---------------------------------------------------------------------
 Center     Atomic      Atomic             Coordinates (Angstroms)
 Number     Number       Type             X           Y           Z
 ---------------------------------------------------------------------
      1         15           0        0.358499    0.000266   -0.182133
      2          8           0       -2.118669   -0.000562    0.041937
      3          8           0        0.795988    0.001007   -1.685910
      4          9           0        1.270404    1.202287    0.701763
      5          8           0       -1.104964    1.118993    0.204159
      6          8           0       -1.104158   -1.119577    0.204251
      7          9           0        1.271479   -1.202608    0.700072
 ---------------------------------------------------------------------

 SCF Done:  E(RB3LYP) =  -842.054561849     A.U. after    1 cycles

 The electronic state is 1-A.
 Alpha  occ. eigenvalues --  -77.08272 -24.49215 -24.49201 -19.07075 -19.02312
 Alpha  occ. eigenvalues --  -19.02309 -18.93403  -6.55113  -4.71427  -4.71426
 Alpha  occ. eigenvalues --   -4.71190  -1.01964  -0.98744  -0.97037  -0.79465
 Alpha  occ. eigenvalues --   -0.79253  -0.67436  -0.43988  -0.36469  -0.33192
 Alpha  occ. eigenvalues --   -0.30041  -0.29350  -0.28804  -0.26753  -0.24079
 Alpha  occ. eigenvalues --   -0.23750  -0.21862  -0.21096  -0.18891  -0.15251
 Alpha  occ. eigenvalues --   -0.14447  -0.13416  -0.09595
 Alpha virt. eigenvalues --    0.11059   0.13443   0.13550   0.24716   0.26645
 Alpha virt. eigenvalues --    0.27062   0.35089   0.35617   0.39305   0.51384
 Alpha virt. eigenvalues --    0.70639   0.78692   0.79990   0.86127   0.88244

 Mulliken charges:
               1
     1  P    1.390950
     2  O   -0.114848
     3  O   -0.631101
     4  F   -0.439694
     5  O   -0.382737
     6  O   -0.382699
     7  F   -0.439871
 Sum of Mulliken charges =  -1.00000

 Dipole moment (field-independent basis, Debye):
    X=             -0.5155    Y=              0.0008    Z=              1.2371  Tot=              1.3402
 Quadrupole moment (field-independent basis, Debye-Ang):
   XX=            -56.2175   YY=            -52.6868   ZZ=            -54.1705
   XY=              0.0030   XZ=              1.4066   YZ=              0.0028

 Normal termination of Gaussian 09 at Wed Jun 21 17:44:11 2017.
