 Gaussian 09, Revision D.01,

 -----------------------------------------
 # opt freq b3lyp/6-311g geom=connectivity
 -----------------------------------------

 -------------------
 Title Card Required
 -------------------
 Symbolic Z-matrix:
 Charge =  0 Multiplicity = 1

 SCF Done:  E(RB3LYP) =  -918.706334425     A.U. after   16 cycles
 SCF Done:  E(RB3LYP) =  -918.752873580     A.U. after   13 cycles
 SCF Done:  E(RB3LYP) =  -918.771953934     A.U. after   15 cycles
 SCF Done:  E(RB3LYP) =  -918.784088446     A.U. after   15 cycles
 SCF Done:  E(RB3LYP) =  -918.476589557     A.U. after   18 cycles
 SCF Done:  E(RB3LYP) =  -918.783388150     A.U. after   15 cycles
 SCF Done:  E(RB3LYP) =  -918.790273577     A.U. after   13 cycles
 SCF Done:  E(RB3LYP) =  -918.794595103     A.U. after   14 cycles
 SCF Done:  E(RB3LYP) =  -918.797543691     A.U. after   15 cycles
 SCF Done:  E(RB3LYP) =  -918.797009447     A.U. after   16 cycles
 SCF Done:  E(RB3LYP) =  -918.804096407     A.U. after   12 cycles
 SCF Done:  E(RB3LYP) =  -918.804102932     A.U. after   12 cycles
 SCF Done:  E(RB3LYP) =  -918.804109771     A.U. after   11 cycles
 SCF Done:  E(RB3LYP) =  -918.804116704     A.U. after   10 cycles
 SCF Done:  E(RB3LYP) =  -918.804118240     A.U. after    8 cycles
 SCF Done:  E(RB3LYP) =  -918.804118721     A.U. after    8 cycles
 Optimization completed.
    -- Stationary point found.
 Normal termination of Gaussian 09 at Wed Jun 21 02:06:46 2017.

 ------------------------------------------------------------------
 #N Geom=AllCheck Guess=TCheck SCRF=Check GenChk RB3LYP/6-311G Freq
 ------------------------------------------------------------------

 Structure from the checkpoint file:  "HF2PO4-h2o.chk"
 -------------------
 Title Card Required
 -------------------
 Charge =  0 Multiplicity = 1

 SCF Done:  E(RB3LYP) =  -918.804118721     A.U. after    1 cycles

  Exact polarizability:  60.306   0.890  40.367   3.188  -3.271  32.897
 Approx polarizability:  85.658   3.354  71.563   7.768 -11.186  51.750

                      1                      2                      3
                      A                      A                      A
 Frequencies --     48.1539                79.2184               107.8514
 Red. masses --      6.9441                11.7876                 4.3101
 Frc consts  --      0.0095                 0.0436                 0.0295
 IR Inten    --      7.9414                 2.4400                19.7745

                      4                      5                      6
                      A                      A                      A
 Frequencies --    166.1996               194.6712               210.9371
 Red. masses --     12.8437                 1.1675                 9.1846
 Frc consts  --      0.2090                 0.0261                 0.2408
 IR Inten    --      1.4039               165.9404                13.4779

                      7                      8                      9
                      A                      A                      A
 Frequencies --    247.9023               316.9728               331.4013
 Red. masses --      8.9773                12.0346                 5.3573
 Frc consts  --      0.3251                 0.7124                 0.3467
 IR Inten    --      1.1274                31.6765                 3.7799

                     10                     11                     12
                      A                      A                      A
 Frequencies --    348.8987               380.3440               422.7437
 Red. masses --     14.4333                 1.2956                 4.1631
 Frc consts  --      1.0352                 0.1104                 0.4384
 IR Inten    --     39.3354               225.2653                53.7843

                     13                     14                     15
                      A                      A                      A
 Frequencies --    473.0970               513.7929               539.4934
 Red. masses --      1.8804                 4.4871                12.4521
 Frc consts  --      0.2480                 0.6979                 2.1353
 IR Inten    --     38.0272                11.9714                66.2124

                     16                     17                     18
                      A                      A                      A
 Frequencies --    680.3627               723.9082               784.5960
 Red. masses --     19.0324                17.4322                17.4982
 Frc consts  --      5.1907                 5.3823                 6.3465
 IR Inten    --    148.6230                44.4700               132.9849

                     19                     20                     21
                      A                      A                      A
 Frequencies --    806.7395               849.4735               912.6058
 Red. masses --     15.9985                16.1626                13.5290
 Frc consts  --      6.1347                 6.8717                 6.6387
 IR Inten    --      1.7182                13.4142               188.9881

                     22                     23                     24
                      A                      A                      A
 Frequencies --   1033.5789              1502.9730              1613.6223
 Red. masses --      1.0638                 1.0794                 1.1076
 Frc consts  --      0.6696                 1.4366                 1.6992
 IR Inten    --    306.4345               147.3983               107.7689

                     25                     26                     27
                      A                      A                      A
 Frequencies --   2578.5154              3715.7991              3887.1160
 Red. masses --      1.0743                 1.0386                 1.0881
 Frc consts  --      4.2082                 8.4488                 9.6866
 IR Inten    --   2330.7159                18.4802               117.2351

 - Thermochemistry -
 -------------------
 Temperature   298.150 Kelvin.  Pressure   1.00000 Atm.
 Atom     1 has atomic number 15 and mass  30.97376

 Molecular mass:   151.96862 amu.
 Principal axes and moments of inertia in atomic units:
                           1         2         3
     Eigenvalues --   641.693311714.312551725.02222
           X            0.99988  -0.01232  -0.00966
           Y            0.01153   0.99689  -0.07797
           Z            0.01059   0.07785   0.99691
 This molecule is an asymmetric top.
 Rotational symmetry number  1.
 Warning -- assumption of classical behavior for rotation
           may cause significant error
 Rotational temperatures (Kelvin)      0.13498     0.05052     0.05021
 Rotational constants (GHZ):           2.81247     1.05275     1.04621
 Zero-point vibrational energy     140387.6 (Joules/Mol)
                                   33.55343 (Kcal/Mol)
 Warning -- explicit consideration of  15 degrees of freedom as
           vibrations may cause significant error
 Vibrational temperatures:     69.28   113.98   155.17   239.12   280.09
          (Kelvin)            303.49   356.68   456.05   476.81   501.99
                              547.23   608.23   680.68   739.23   776.21
                              978.89  1041.54  1128.86  1160.72  1222.20
                             1313.03  1487.09  2162.44  2321.64  3709.90
                             5346.20  5592.69

 Zero-point correction=                           0.053471 (Hartree/Particle)
 Thermal correction to Energy=                    0.063812
 Thermal correction to Enthalpy=                  0.064756
 Thermal correction to Gibbs Free Energy=         0.017446
 Sum of electronic and zero-point Energies=           -918.750648
 Sum of electronic and thermal Energies=              -918.740307
 Sum of electronic and thermal Enthalpies=            -918.739362
 Sum of electronic and thermal Free Energies=         -918.786673

                     E (Thermal)             CV                S
                      KCal/Mol        Cal/Mol-Kelvin    Cal/Mol-Kelvin
 Total                   40.043             35.115             99.573
 Electronic               0.000              0.000              0.000
 Translational            0.889              2.981             40.966
 Rotational               0.889              2.981             29.030
 Vibrational             38.265             29.153             29.577
 Vibration     1          0.595              1.978              4.892
 Vibration     2          0.600              1.963              3.910
 Vibration     3          0.606              1.943              3.307
 Vibration     4          0.624              1.884              2.478
 Vibration     5          0.635              1.847              2.183
 Vibration     6          0.643              1.824              2.036
 Vibration     7          0.662              1.766              1.745
 Vibration     8          0.704              1.641              1.326
 Vibration     9          0.714              1.613              1.253
 Vibration    10          0.726              1.578              1.171
 Vibration    11          0.750              1.512              1.038
 Vibration    12          0.785              1.421              0.883
 Vibration    13          0.830              1.310              0.729
 Vibration    14          0.869              1.219              0.625
 Vibration    15          0.895              1.163              0.566

 Normal termination of Gaussian 09 at Wed Jun 21 02:07:53 2017.

 ---------------------------------------------
 # B3LYP/6-311+G(2df,2p) geom=check guess=read
 ---------------------------------------------

 -------------------
 Title Card Required
 -------------------
 Structure from the checkpoint file:  "HF2PO4-h2o.chk"
 Charge =  0 Multiplicity = 1

 SCF Done:  E(RB3LYP) =  -919.115176577     A.U. after   13 cycles
 Normal termination of Gaussian 09 at Wed Jun 21 02:09:45 2017.

 --------------------------------------------------
 # B3LYP/6-311G** geom=check guess=read pop=nboread
 --------------------------------------------------

 -------------------
 Title Card Required
 -------------------
 Structure from the checkpoint file:  "HF2PO4-h2o.chk"
 Charge =  0 Multiplicity = 1

 SCF Done:  E(RB3LYP) =  -919.030335985     A.U. after   12 cycles

 Summary of Natural Population Analysis:

                                       Natural Population
                Natural  -----------------------------------------------
    Atom  No    Charge         Core      Valence    Rydberg      Total
 -----------------------------------------------------------------------
      P    1    2.33788      9.99944     2.53763    0.12505    12.66212
      O    2    0.01302      1.99994     5.97573    0.01131     7.98698
      O    3   -0.95033      1.99976     6.94376    0.00681     8.95033
      H    4    0.53081      0.00000     0.46230    0.00689     0.46919
      F    5   -0.57521      1.99997     7.57282    0.00241     9.57521
      O    6   -0.46599      1.99991     6.45683    0.00925     8.46599
      O    7   -0.46528      1.99993     6.45627    0.00908     8.46528
      F    8   -0.51258      1.99996     7.50929    0.00333     9.51258
      O    9   -0.91509      1.99977     6.90667    0.00865     8.91509
      H   10    0.49499      0.00000     0.50057    0.00444     0.50501
      H   11    0.50777      0.00000     0.48669    0.00554     0.49223
 =======================================================================
   * Total *    0.00000     23.99869    51.80856    0.19275    76.00000

 Normal termination of Gaussian 09 at Wed Jun 21 02:10:38 2017.
 Gaussian 09:  AM64L-G09RevD.01 24-Apr-2013

 -------------------------------------------------
 # B3LYP/6-311G** geom=check guess=read output=wfx
 -------------------------------------------------

 -------------------
 Title Card Required
 -------------------
 Structure from the checkpoint file:  "HF2PO4-h2o.chk"
 Charge =  0 Multiplicity = 1

                         Standard orientation:
 ---------------------------------------------------------------------
 Center     Atomic      Atomic             Coordinates (Angstroms)
 Number     Number       Type             X           Y           Z
 ---------------------------------------------------------------------
      1         15           0       -0.203544    0.001480    0.162031
      2          8           0       -2.490588   -0.116202   -0.686820
      3          8           0        0.849739   -1.203894   -0.133634
      4          1           0        1.850571   -0.956075   -0.252604
      5          9           0        0.934385    1.294133   -0.183244
      6          8           0       -1.321304    0.838475   -0.945998
      7          8           0       -1.693042   -1.065877    0.199372
      8          9           0       -0.256564    0.438509    1.793964
      9          8           0        3.151924   -0.291037   -0.402671
     10          1           0        4.053517   -0.625002   -0.468842
     11          1           0        3.074865    0.673381   -0.447491
 ---------------------------------------------------------------------

 SCF Done:  E(RB3LYP) =  -919.030335985     A.U. after    1 cycles

 The electronic state is 1-A.
 Alpha  occ. eigenvalues --  -77.30750 -24.71266 -24.68342 -19.26399 -19.23644
 Alpha  occ. eigenvalues --  -19.21170 -19.18835 -19.18359  -6.77444  -4.93809
 Alpha  occ. eigenvalues --   -4.93721  -4.93604  -1.23220  -1.19088  -1.16648
 Alpha  occ. eigenvalues --   -1.08725  -1.05974  -0.99550  -0.88015  -0.67269
 Alpha  occ. eigenvalues --   -0.61999  -0.59576  -0.56118  -0.52746  -0.51059
 Alpha  occ. eigenvalues --   -0.48345  -0.48096  -0.46232  -0.45243  -0.44977
 Alpha  occ. eigenvalues --   -0.42352  -0.41875  -0.39533  -0.39226  -0.37973
 Alpha  occ. eigenvalues --   -0.37098  -0.35590  -0.28883
 Alpha virt. eigenvalues --   -0.08073  -0.06989  -0.05729  -0.00971   0.02810
 Alpha virt. eigenvalues --    0.06663   0.08077   0.10074   0.17078   0.17397
 Alpha virt. eigenvalues --    0.19209   0.21440   0.29422   0.32279   0.33137

 Mulliken charges:
               1
     1  P    1.517040
     2  O   -0.026477
     3  O   -0.550780
     4  H    0.381422
     5  F   -0.439152
     6  O   -0.307049
     7  O   -0.328724
     8  F   -0.340498
     9  O   -0.518492
    10  H    0.301306
    11  H    0.311404
 Sum of Mulliken charges =   0.00000

 Dipole moment (field-independent basis, Debye):
    X=              6.3094    Y=              0.0366    Z=             -0.7519  Tot=              6.3542
 Quadrupole moment (field-independent basis, Debye-Ang):
   XX=            -33.1000   YY=            -54.8955   ZZ=            -54.2086
   XY=             -1.9154   XZ=             -2.9840   YZ=              0.0216

 Normal termination of Gaussian 09 at Wed Jun 21 02:10:47 2017.
