 Gaussian 09, Revision D.01,

 -----------------------------------------
 # opt freq b3lyp/6-311g geom=connectivity
 -----------------------------------------

 -------------------
 Title Card Required
 -------------------
 Symbolic Z-matrix:
 Charge =  0 Multiplicity = 1

 SCF Done:  E(RB3LYP) =  -440.176342110     A.U. after   22 cycles
 SCF Done:  E(RB3LYP) =  -440.319096914     A.U. after   15 cycles
 SCF Done:  E(RB3LYP) =  -440.461150786     A.U. after   15 cycles
 SCF Done:  E(RB3LYP) =  -440.508534089     A.U. after   16 cycles
 SCF Done:  E(RB3LYP) =  -440.529256549     A.U. after   14 cycles
 SCF Done:  E(RB3LYP) =  -440.536531838     A.U. after   14 cycles
 SCF Done:  E(RB3LYP) =  -440.540311183     A.U. after   14 cycles
 SCF Done:  E(RB3LYP) =  -440.543709701     A.U. after   14 cycles
 SCF Done:  E(RB3LYP) =  -440.544989179     A.U. after   12 cycles
 SCF Done:  E(RB3LYP) =  -440.547563657     A.U. after   15 cycles
 SCF Done:  E(RB3LYP) =  -440.551813960     A.U. after    9 cycles
 SCF Done:  E(RB3LYP) =  -440.551814305     A.U. after    9 cycles
 SCF Done:  E(RB3LYP) =  -440.551814661     A.U. after    9 cycles
 SCF Done:  E(RB3LYP) =  -440.551814881     A.U. after    8 cycles
 SCF Done:  E(RB3LYP) =  -440.551815034     A.U. after    8 cycles
 SCF Done:  E(RB3LYP) =  -440.551815183     A.U. after    8 cycles
 Optimization completed.
    -- Stationary point found.
 Normal termination of Gaussian 09 at Fri Jun 23 05:45:25 2017.

 ------------------------------------------------------------------
 #N Geom=AllCheck Guess=TCheck SCRF=Check GenChk RB3LYP/6-311G Freq
 ------------------------------------------------------------------

 Structure from the checkpoint file:  "HFCO3-h2o.chk"
 -------------------
 Title Card Required
 -------------------
 Charge =  0 Multiplicity = 1

 SCF Done:  E(RB3LYP) =  -440.551815183     A.U. after    1 cycles

  Exact polarizability:  45.265  -6.191  33.863   0.006   0.001  12.580
 Approx polarizability:  63.575 -19.976  64.253   0.006   0.002  14.351

                      1                      2                      3
                      A                      A                      A
 Frequencies --     79.0838               108.9759               142.6624
 Red. masses --      6.2594                 3.9478                 2.6699
 Frc consts  --      0.0231                 0.0276                 0.0320
 IR Inten    --      8.7218                30.0721                73.9006

                      4                      5                      6
                      A                      A                      A
 Frequencies --    152.3321               222.3906               371.0261
 Red. masses --      1.7992                 8.4829                 7.7247
 Frc consts  --      0.0246                 0.2472                 0.6265
 IR Inten    --    156.8354                 3.7979                58.0224

                      7                      8                      9
                      A                      A                      A
 Frequencies --    421.5454               479.8787               514.0188
 Red. masses --      1.0782                 1.2858                15.3292
 Frc consts  --      0.1129                 0.1745                 2.3863
 IR Inten    --    179.7450                95.6681                 4.7287

                     10                     11                     12
                      A                      A                      A
 Frequencies --    638.7631               700.4019               856.2263
 Red. masses --      6.7549                10.4369                14.0816
 Frc consts  --      1.6239                 3.0166                 6.0825
 IR Inten    --     12.4041                24.9203                64.1806

                     13                     14                     15
                      A                      A                      A
 Frequencies --    895.8045               990.9945              1239.0399
 Red. masses --     12.3979                 1.0708                 5.4279
 Frc consts  --      5.8617                 0.6196                 4.9097
 IR Inten    --      1.7069               262.0007               295.8511

                     16                     17                     18
                      A                      A                      A
 Frequencies --   1562.1552              1600.1986              1701.0609
 Red. masses --      1.4508                 1.1436                 4.8481
 Frc consts  --      2.0860                 1.7253                 8.2654
 IR Inten    --     59.3111               392.7208               269.1929

                     19                     20                     21
                      A                      A                      A
 Frequencies --   2877.2707              3673.7510              3869.4854
 Red. masses --      1.0678                 1.0408                 1.0855
 Frc consts  --      5.2086                 8.2760                 9.5760
 IR Inten    --   1201.2877                34.6591                92.9303

 - Thermochemistry -
 -------------------
 Temperature   298.150 Kelvin.  Pressure   1.00000 Atm.
 Atom     1 has atomic number  6 and mass  12.00000

 Molecular mass:    98.00154 amu.
 Principal axes and moments of inertia in atomic units:
                           1         2         3
     Eigenvalues --   230.477051006.522961236.99999
           X            0.99982   0.01874   0.00002
           Y           -0.01874   0.99982   0.00002
           Z           -0.00002  -0.00002   1.00000
 This molecule is an asymmetric top.
 Rotational symmetry number  1.
 Rotational temperatures (Kelvin)      0.37580     0.08605     0.07002
 Rotational constants (GHZ):           7.83046     1.79305     1.45897
 Zero-point vibrational energy     138151.1 (Joules/Mol)
                                   33.01891 (Kcal/Mol)
 Warning -- explicit consideration of   9 degrees of freedom as
           vibrations may cause significant error
 Vibrational temperatures:    113.78   156.79   205.26   219.17   319.97
          (Kelvin)            533.82   606.51   690.44   739.56   919.04
                             1007.72  1231.92  1288.86  1425.82  1782.70
                             2247.59  2302.33  2447.44  4139.75  5285.70
                             5567.32

 Zero-point correction=                           0.052619 (Hartree/Particle)
 Thermal correction to Energy=                    0.060280
 Thermal correction to Enthalpy=                  0.061224
 Thermal correction to Gibbs Free Energy=         0.020451
 Sum of electronic and zero-point Energies=           -440.499196
 Sum of electronic and thermal Energies=              -440.491535
 Sum of electronic and thermal Enthalpies=            -440.490591
 Sum of electronic and thermal Free Energies=         -440.531364

                     E (Thermal)             CV                S
                      KCal/Mol        Cal/Mol-Kelvin    Cal/Mol-Kelvin
 Total                   37.826             24.518             85.814
 Electronic               0.000              0.000              0.000
 Translational            0.889              2.981             39.658
 Rotational               0.889              2.981             27.153
 Vibrational             36.049             18.557             19.003
 Vibration     1          0.600              1.963              3.913
 Vibration     2          0.606              1.942              3.287
 Vibration     3          0.616              1.911              2.768
 Vibration     4          0.619              1.900              2.643
 Vibration     5          0.648              1.807              1.940
 Vibration     6          0.743              1.532              1.076
 Vibration     7          0.784              1.423              0.887
 Vibration     8          0.836              1.295              0.710
 Vibration     9          0.869              1.219              0.624

 Optimization completed.
    -- Stationary point found.
 Normal termination of Gaussian 09 at Fri Jun 23 05:45:36 2017.

 ---------------------------------------------
 # B3LYP/6-311+G(2df,2p) geom=check guess=read
 ---------------------------------------------

 -------------------
 Title Card Required
 -------------------
 Structure from the checkpoint file:  "HFCO3-h2o.chk"
 Charge =  0 Multiplicity = 1

 SCF Done:  E(RB3LYP) =  -440.718919200     A.U. after   12 cycles
 Normal termination of Gaussian 09 at Fri Jun 23 05:46:00 2017.

 --------------------------------------------------
 # B3LYP/6-311G** geom=check guess=read pop=nboread
 --------------------------------------------------

 -------------------
 Title Card Required
 -------------------
 Structure from the checkpoint file:  "HFCO3-h2o.chk"
 Charge =  0 Multiplicity = 1

 SCF Done:  E(RB3LYP) =  -440.677550429     A.U. after   11 cycles

 Summary of Natural Population Analysis:

                                       Natural Population
                Natural  -----------------------------------------------
    Atom  No    Charge         Core      Valence    Rydberg      Total
 -----------------------------------------------------------------------
      C    1    1.03287      1.99969     2.91509    0.05235     4.96713
      O    2   -0.62345      1.99975     6.61419    0.00951     8.62345
      O    3   -0.17468      1.99977     6.16520    0.00971     8.17468
      O    4   -0.68092      1.99970     6.67245    0.00877     8.68092
      H    5    0.52018      0.00000     0.47313    0.00669     0.47982
      F    6   -0.13486      1.99998     7.13188    0.00300     9.13486
      O    7   -0.93132      1.99977     6.92288    0.00867     8.93132
      H    8    0.48784      0.00000     0.50758    0.00459     0.51216
      H    9    0.50434      0.00000     0.48917    0.00650     0.49566
 =======================================================================
   * Total *    0.00000     11.99866    37.89156    0.10978    50.00000

 1\1\GINC-INDIO\SP\RB3LYP\6-311G(d,p)\C1H3F1O4\SARARIOP\23-Jun-2017\0\\
 # B3LYP/6-311G** geom=check guess=read pop=nboread\\Title Card Require
 d\\0,1\C,0,0.3732681829,0.7305229807,-0.0285401267\O,0,-0.823502592,0.
 927360781,0.1943631559\O,0,0.6762290437,-0.5532008686,-0.5114783251\O,
 0,1.394420274,1.5536269537,0.1238482456\H,0,1.0602628902,2.4507784562,
 0.4771198584\F,0,2.1511606203,-0.7032699545,-0.7542897966\O,0,0.020324
 9491,3.4874260363,0.9699927187\H,0,0.0133924392,4.3977029997,1.2873877
 874\H,0,-0.8544093674,3.0663046155,0.9379847024\\Version=AM64L-G09RevD

 Normal termination of Gaussian 09 at Fri Jun 23 05:46:09 2017.
 Gaussian 09:  AM64L-G09RevD.01 24-Apr-2013

 -------------------------------------------------
 # B3LYP/6-311G** geom=check guess=read output=wfx
 -------------------------------------------------

 -------------------
 Title Card Required
 -------------------
 Structure from the checkpoint file:  "HFCO3-h2o.chk"
 Charge =  0 Multiplicity = 1

                         Standard orientation:
 ---------------------------------------------------------------------
 Center     Atomic      Atomic             Coordinates (Angstroms)
 Number     Number       Type             X           Y           Z
 ---------------------------------------------------------------------
      1          6           0        0.178870    0.361228   -0.000001
      2          8           0       -0.512885    1.382093    0.000017
      3          8           0        1.564411    0.591960   -0.000060
      4          8           0       -0.203096   -0.902725    0.000018
      5          1           0       -1.222389   -0.951558    0.000136
      6          9           0        2.326216   -0.702858   -0.000002
      7          8           0       -2.672622   -0.407632    0.000214
      8          1           0       -3.569113   -0.762164   -0.001480
      9          1           0       -2.624115    0.562510   -0.000141
 ---------------------------------------------------------------------

 SCF Done:  E(RB3LYP) =  -440.677550429     A.U. after    1 cycles

 The electronic state is 1-A.
 Alpha  occ. eigenvalues --  -24.70947 -19.26078 -19.17905 -19.16774 -19.13950
 Alpha  occ. eigenvalues --  -10.37761  -1.22967  -1.13317  -1.06227  -1.04813
 Alpha  occ. eigenvalues --   -0.99867  -0.65804  -0.59935  -0.58598  -0.51671
 Alpha  occ. eigenvalues --   -0.50740  -0.48339  -0.45649  -0.43877  -0.40407
 Alpha  occ. eigenvalues --   -0.39350  -0.36723  -0.35307  -0.32915  -0.32400
 Alpha virt. eigenvalues --   -0.11018   0.00015   0.00536   0.08427   0.10365
 Alpha virt. eigenvalues --    0.18430   0.24947   0.30479   0.33762   0.36279
 Alpha virt. eigenvalues --    0.38406   0.42286   0.42509   0.48792   0.55266

 Mulliken charges:
               1
     1  C    0.545716
     2  O   -0.371912
     3  O   -0.100340
     4  O   -0.322226
     5  H    0.322903
     6  F   -0.139606
     7  O   -0.525398
     8  H    0.291124
     9  H    0.299738
 Sum of Mulliken charges =   0.00000

 Dipole moment (field-independent basis, Debye):
    X=             -4.8282    Y=             -0.9599    Z=             -0.0037  Tot=              4.9227
 Quadrupole moment (field-independent basis, Debye-Ang):
   XX=            -20.7492   YY=            -35.9431   ZZ=            -33.0651
   XY=              2.4396   XZ=              0.0139   YZ=              0.0024

 Normal termination of Gaussian 09 at Fri Jun 23 05:46:11 2017.
