 Gaussian 09, Revision D.01,

 -----------------------------------------
 # opt freq b3lyp/6-311g geom=connectivity
 -----------------------------------------

 -------------------
 Title Card Required
 -------------------
 Symbolic Z-matrix:
 Charge =  0 Multiplicity = 1

 SCF Done:  E(RB3LYP) =  -875.553840288     A.U. after   16 cycles
 SCF Done:  E(RB3LYP) =  -875.601621481     A.U. after   14 cycles
 SCF Done:  E(RB3LYP) =  -875.612583628     A.U. after   18 cycles
 SCF Done:  E(RB3LYP) =  -875.590236329     A.U. after   19 cycles
 SCF Done:  E(RB3LYP) =  -875.620338760     A.U. after   14 cycles
 SCF Done:  E(RB3LYP) =  -875.614577817     A.U. after   15 cycles
 SCF Done:  E(RB3LYP) =  -875.622010164     A.U. after   11 cycles
 SCF Done:  E(RB3LYP) =  -875.625014758     A.U. after   14 cycles
 SCF Done:  E(RB3LYP) =  -875.625964577     A.U. after   15 cycles
 SCF Done:  E(RB3LYP) =  -875.626101382     A.U. after   13 cycles
 SCF Done:  E(RB3LYP) =  -875.629937202     A.U. after   10 cycles
 SCF Done:  E(RB3LYP) =  -875.629938861     A.U. after   10 cycles
 SCF Done:  E(RB3LYP) =  -875.629941575     A.U. after   13 cycles
 SCF Done:  E(RB3LYP) =  -875.629942800     A.U. after   10 cycles
 SCF Done:  E(RB3LYP) =  -875.629944064     A.U. after   11 cycles
 SCF Done:  E(RB3LYP) =  -875.629944671     A.U. after    9 cycles
 Optimization completed.
    -- Stationary point found.
 Normal termination of Gaussian 09 at Wed Jun 21 02:13:48 2017.

 ------------------------------------------------------------------
 #N Geom=AllCheck Guess=TCheck SCRF=Check GenChk RB3LYP/6-311G Freq
 ------------------------------------------------------------------

 Structure from the checkpoint file:  "HFSO4-h2o.chk"
 -------------------
 Title Card Required
 -------------------
 Charge =  0 Multiplicity = 1

 SCF Done:  E(RB3LYP) =  -875.629944671     A.U. after    3 cycles

  Exact polarizability:  54.243  -3.353  54.561  -0.699   1.952  42.447
 Approx polarizability: 101.014 -12.060  98.458  -3.618   9.813 102.658

                      1                      2                      3
                      A                      A                      A
 Frequencies --     36.0025                57.4807                86.3758
 Red. masses --      6.8939                 5.4591                 5.3190
 Frc consts  --      0.0053                 0.0106                 0.0234
 IR Inten    --      5.7630                12.9388                13.6358

                      4                      5                      6
                      A                      A                      A
 Frequencies --    142.4541               173.1982               205.0826
 Red. masses --      9.4161                 1.4507                 4.1318
 Frc consts  --      0.1126                 0.0256                 0.1024
 IR Inten    --      2.4571                54.3579                39.3561

                      7                      8                      9
                      A                      A                      A
 Frequencies --    222.2920               294.3846               330.2364
 Red. masses --      9.1234                 7.6233                 3.8004
 Frc consts  --      0.2656                 0.3892                 0.2442
 IR Inten    --      9.9010                36.6550               133.7386

                     10                     11                     12
                      A                      A                      A
 Frequencies --    340.7584               363.5571               393.7815
 Red. masses --      2.2227                 3.7102                 6.0108
 Frc consts  --      0.1521                 0.2889                 0.5491
 IR Inten    --    109.3811                26.1498                72.5011

                     13                     14                     15
                      A                      A                      A
 Frequencies --    417.9820               518.5288               646.3160
 Red. masses --      1.3192                16.4436                15.2582
 Frc consts  --      0.1358                 2.6049                 3.7553
 IR Inten    --    116.7123                78.5124                56.2080

                     16                     17                     18
                      A                      A                      A
 Frequencies --    829.3926               897.2610               937.2439
 Red. masses --     18.4372                17.1208                11.7240
 Frc consts  --      7.4725                 8.1210                 6.0678
 IR Inten    --    117.7115                25.0093                52.9945

                     19                     20                     21
                      A                      A                      A
 Frequencies --   1048.3515              1460.8640              1624.1171
 Red. masses --      1.0924                 1.0801                 1.1050
 Frc consts  --      0.7074                 1.3581                 1.7173
 IR Inten    --    190.6835                87.9641               112.2128

                     22                     23                     24
                      A                      A                      A
 Frequencies --   2538.5492              3718.3119              3878.9280
 Red. masses --      1.0733                 1.0377                 1.0887
 Frc consts  --      4.0753                 8.4532                 9.6511
 IR Inten    --   1837.5061                10.3463               104.9077

 - Thermochemistry -
 -------------------
 Temperature   298.150 Kelvin.  Pressure   1.00000 Atm.
 Atom     1 has atomic number 16 and mass  31.97207

 Molecular mass:   133.96852 amu.
 Principal axes and moments of inertia in atomic units:
                           1         2         3
     Eigenvalues --   862.530641053.570531441.31710
           X            0.99906   0.04274  -0.00710
           Y           -0.04275   0.99908  -0.00145
           Z            0.00704   0.00175   0.99997
 This molecule is an asymmetric top.
 Rotational symmetry number  1.
 Warning -- assumption of classical behavior for rotation
           may cause significant error
 Rotational temperatures (Kelvin)      0.10042     0.08221     0.06009
 Rotational constants (GHZ):           2.09238     1.71298     1.25215
 Zero-point vibrational energy     126573.6 (Joules/Mol)
                                   30.25181 (Kcal/Mol)
 Warning -- explicit consideration of  14 degrees of freedom as
           vibrations may cause significant error
 Vibrational temperatures:     51.80    82.70   124.28   204.96   249.19
          (Kelvin)            295.07   319.83   423.55   475.14   490.27
                              523.08   566.56   601.38   746.05   929.90
                             1193.31  1290.96  1348.48  1508.34  2101.85
                             2336.74  3652.40  5349.81  5580.91

 Zero-point correction=                           0.048209 (Hartree/Particle)
 Thermal correction to Energy=                    0.058522
 Thermal correction to Enthalpy=                  0.059466
 Thermal correction to Gibbs Free Energy=         0.011648
 Sum of electronic and zero-point Energies=           -875.581735
 Sum of electronic and thermal Energies=              -875.571423
 Sum of electronic and thermal Enthalpies=            -875.570479
 Sum of electronic and thermal Free Energies=         -875.618297

                     E (Thermal)             CV                S
                      KCal/Mol        Cal/Mol-Kelvin    Cal/Mol-Kelvin
 Total                   36.723             32.824            100.642
 Electronic               0.000              0.000              0.000
 Translational            0.889              2.981             40.590
 Rotational               0.889              2.981             28.662
 Vibrational             34.945             26.862             31.390
 Vibration     1          0.594              1.982              5.468
 Vibration     2          0.596              1.975              4.542
 Vibration     3          0.601              1.959              3.741
 Vibration     4          0.616              1.911              2.771
 Vibration     5          0.627              1.875              2.400
 Vibration     6          0.640              1.833              2.087
 Vibration     7          0.648              1.807              1.940
 Vibration     8          0.689              1.684              1.449
 Vibration     9          0.713              1.615              1.259
 Vibration    10          0.720              1.594              1.209
 Vibration    11          0.737              1.547              1.107
 Vibration    12          0.761              1.483              0.986
 Vibration    13          0.781              1.431              0.899
 Vibration    14          0.874              1.209              0.613

 Optimization completed.
    -- Stationary point found.
 Normal termination of Gaussian 09 at Wed Jun 21 02:14:37 2017.

 ---------------------------------------------
 # B3LYP/6-311+G(2df,2p) geom=check guess=read
 ---------------------------------------------

 -------------------
 Title Card Required
 -------------------
 Structure from the checkpoint file:  "HFSO4-h2o.chk"
 Charge =  0 Multiplicity = 1

 SCF Done:  E(RB3LYP) =  -875.937145230     A.U. after   15 cycles
 Normal termination of Gaussian 09 at Wed Jun 21 02:16:00 2017.

 --------------------------------------------------
 # B3LYP/6-311G** geom=check guess=read pop=nboread
 --------------------------------------------------

 -------------------
 Title Card Required
 -------------------
 Structure from the checkpoint file:  "HFSO4-h2o.chk"
 Charge =  0 Multiplicity = 1

 SCF Done:  E(RB3LYP) =  -875.855156193     A.U. after   12 cycles

 Summary of Natural Population Analysis:

                                       Natural Population
                Natural  -----------------------------------------------
    Atom  No    Charge         Core      Valence    Rydberg      Total
 -----------------------------------------------------------------------
      S    1    2.03882      9.99947     3.81225    0.14945    13.96118
      O    2   -0.70201      1.99990     6.69421    0.00790     8.70201
      O    3   -0.72135      1.99991     6.71374    0.00770     8.72135
      O    4   -0.78739      1.99983     6.77951    0.00805     8.78739
      H    5    0.51358      0.00000     0.47907    0.00734     0.48642
      O    6   -0.29746      1.99997     6.28688    0.01060     8.29746
      F    7   -0.13050      1.99998     7.12627    0.00425     9.13050
      O    8   -0.91488      1.99977     6.90602    0.00909     8.91488
      H    9    0.50494      0.00000     0.48938    0.00568     0.49506
      H   10    0.49624      0.00000     0.49914    0.00463     0.50376
 =======================================================================
   * Total *    0.00000     21.99883    45.78648    0.21469    68.00000

 Normal termination of Gaussian 09 at Wed Jun 21 02:16:45 2017.
 Gaussian 09:  AM64L-G09RevD.01 24-Apr-2013

 -------------------------------------------------
 # B3LYP/6-311G** geom=check guess=read output=wfx
 -------------------------------------------------

 -------------------
 Title Card Required
 -------------------
 Structure from the checkpoint file:  "HFSO4-h2o.chk"
 Charge =  0 Multiplicity = 1

                         Standard orientation:
 ---------------------------------------------------------------------
 Center     Atomic      Atomic             Coordinates (Angstroms)
 Number     Number       Type             X           Y           Z
 ---------------------------------------------------------------------
      1         16           0        0.713798   -0.406925    0.103591
      2          8           0        2.116850   -0.672618   -0.600995
      3          8           0        0.566743   -0.160228    1.678228
      4          8           0       -0.462007   -1.508717   -0.562562
      5          1           0       -1.410020   -1.160788   -0.299120
      6          8           0       -0.223693    1.102113   -0.779893
      7          9           0        0.117941    2.315970   -0.001877
      8          8           0       -2.633183   -0.394748    0.044416
      9          1           0       -2.613199    0.546332   -0.181123
     10          1           0       -3.376707   -0.644876    0.606126
 ---------------------------------------------------------------------

 SCF Done:  E(RB3LYP) =  -875.855156193     A.U. after    2 cycles

 The electronic state is 1-A.
 Alpha  occ. eigenvalues --  -89.13665 -24.72715 -19.26662 -19.20441 -19.19325
 Alpha  occ. eigenvalues --  -19.19273 -19.19160  -8.19344  -6.15645  -6.15587
 Alpha  occ. eigenvalues --   -6.15452  -1.23850  -1.11874  -1.08635  -1.03451
 Alpha  occ. eigenvalues --   -1.01441  -0.96246  -0.70999  -0.62204  -0.58462
 Alpha  occ. eigenvalues --   -0.55003  -0.51247  -0.50769  -0.48923  -0.47515
 Alpha  occ. eigenvalues --   -0.44206  -0.41868  -0.38903  -0.38069  -0.37384
 Alpha  occ. eigenvalues --   -0.35868  -0.35689  -0.34486  -0.33542
 Alpha virt. eigenvalues --   -0.14980  -0.10445  -0.07935  -0.01448  -0.00177
 Alpha virt. eigenvalues --    0.04492   0.06517   0.14849   0.18402   0.19480
 Alpha virt. eigenvalues --    0.21809   0.30218   0.33191   0.34825   0.42734

 Mulliken charges:
               1
     1  S    1.167892
     2  O   -0.398630
     3  O   -0.424869
     4  O   -0.480658
     5  H    0.375103
     6  O   -0.209476
     7  F   -0.130534
     8  O   -0.512683
     9  H    0.310284
    10  H    0.303572
 Sum of Mulliken charges =   0.00000

 Dipole moment (field-independent basis, Debye):
    X=             -5.8153    Y=             -0.1076    Z=              0.5451  Tot=              5.8418
 Quadrupole moment (field-independent basis, Debye-Ang):
   XX=            -34.5647   YY=            -49.0404   ZZ=            -50.9608
   XY=              1.0716   XZ=             -2.2782   YZ=             -1.8221

 Normal termination of Gaussian 09 at Wed Jun 21 02:16:54 2017.
