 Gaussian 09, Revision D.01,

 --------------------------------
 # b3lyp/6-311g geom=connectivity
 --------------------------------

 -------------------
 Title Card Required
 -------------------
 Symbolic Z-matrix:
 Charge =  0 Multiplicity = 1

 SCF Done:  E(RB3LYP) =  -799.105984239     A.U. after   16 cycles
 Normal termination of Gaussian 09 at Thu Jun 22 09:50:55 2017.

 ---------------------------------------------
 # B3LYP/6-311+G(2df,2p) geom=check guess=read
 ---------------------------------------------

 -------------------
 Title Card Required
 -------------------
 Structure from the checkpoint file:  "HFSO4nuevo.chk"
 Charge =  0 Multiplicity = 1

 SCF Done:  E(RB3LYP) =  -799.535763586     A.U. after   13 cycles
 Normal termination of Gaussian 09 at Thu Jun 22 09:52:13 2017.

 --------------------------------------------------
 # B3LYP/6-311G** geom=check guess=read pop=nboread
 --------------------------------------------------

 -------------------
 Title Card Required
 -------------------
 Structure from the checkpoint file:  "HFSO4nuevo.chk"
 Charge =  0 Multiplicity = 1

 SCF Done:  E(RB3LYP) =  -799.444898522     A.U. after   12 cycles

 Summary of Natural Population Analysis:

                                       Natural Population
                Natural  -----------------------------------------------
    Atom  No    Charge         Core      Valence    Rydberg      Total
 -----------------------------------------------------------------------
      S    1    2.38676      9.99920     3.38555    0.22849    13.61324
      O    2   -0.80824      1.99978     6.79700    0.01146     8.80824
      O    3   -0.80827      1.99978     6.79703    0.01146     8.80827
      O    4   -0.83908      1.99978     6.82959    0.00971     8.83908
      H    5    0.51315      0.00000     0.48147    0.00537     0.48685
      O    6   -0.34986      1.99990     6.33492    0.01504     8.34986
      F    7   -0.09447      1.99997     7.08902    0.00548     9.09447
 =======================================================================
   * Total *    0.00000     19.99842    37.71457    0.28701    58.00000

 Normal termination of Gaussian 09 at Thu Jun 22 09:53:42 2017.
 Gaussian 09:  AM64L-G09RevD.01 24-Apr-2013

 -------------------------------------------------
 # B3LYP/6-311G** geom=check guess=read output=wfx
 -------------------------------------------------

 -------------------
 Title Card Required
 -------------------
 Structure from the checkpoint file:  "HFSO4nuevo.chk"
 Charge =  0 Multiplicity = 1

                         Standard orientation:
 ---------------------------------------------------------------------
 Center     Atomic      Atomic             Coordinates (Angstroms)
 Number     Number       Type             X           Y           Z
 ---------------------------------------------------------------------
      1         16           0       -0.417093   -0.189197    0.000059
      2          8           0       -0.505254   -0.870323   -1.258734
      3          8           0       -0.502660   -0.870238    1.259083
      4          8           0       -1.388807    1.098951    0.000855
      5          1           0       -0.894151    1.934031    0.001552
      6          8           0        0.975077    0.823803   -0.001340
      7          9           0        2.104533   -0.040492   -0.000158
 ---------------------------------------------------------------------

 SCF Done:  E(RB3LYP) =  -799.444898522     A.U. after    1 cycles

 The electronic state is 1-A.
 Alpha  occ. eigenvalues --  -89.15321 -24.76341 -19.29122 -19.23351 -19.18290
 Alpha  occ. eigenvalues --  -19.18290  -8.21287  -6.17659  -6.17541  -6.17333
 Alpha  occ. eigenvalues --   -1.30687  -1.21914  -1.11128  -1.08506  -1.02206
 Alpha  occ. eigenvalues --   -0.72829  -0.65562  -0.58518  -0.54764  -0.54480
 Alpha  occ. eigenvalues --   -0.51104  -0.49335  -0.46124  -0.44080  -0.41952
 Alpha  occ. eigenvalues --   -0.40156  -0.39701  -0.36179  -0.35157
 Alpha virt. eigenvalues --   -0.11824  -0.03989  -0.02571   0.04710   0.06874
 Alpha virt. eigenvalues --    0.11298   0.16433   0.18918   0.21942   0.31545
 Alpha virt. eigenvalues --    0.37988   0.51614   0.57017   0.63873   0.67543

 Mulliken charges:
               1
     1  S    1.239690
     2  O   -0.407420
     3  O   -0.407463
     4  O   -0.438759
     5  H    0.328886
     6  O   -0.225590
     7  F   -0.089344
 Sum of Mulliken charges =   0.00000

 Dipole moment (field-independent basis, Debye):
    X=             -0.1009    Y=              3.0474    Z=              0.0021  Tot=              3.0490
 Quadrupole moment (field-independent basis, Debye-Ang):
   XX=            -41.1547   YY=            -35.6347   ZZ=            -43.9100
   XY=             -2.0931   XZ=             -0.0053   YZ=              0.0060

 Normal termination of Gaussian 09 at Thu Jun 22 09:53:54 2017.
