 Gaussian 09, Revision D.01,

 -----------------------------------------
 # opt freq b3lyp/6-311g geom=connectivity
 -----------------------------------------

 -------------------
 Title Card Required
 -------------------
 Symbolic Z-matrix:
 Charge = -1 Multiplicity = 1

 SCF Done:  E(RB3LYP) =  -875.091779509     A.U. after   21 cycles
 SCF Done:  E(RB3LYP) =  -875.107389585     A.U. after   17 cycles
 SCF Done:  E(RB3LYP) =  -875.115215411     A.U. after   17 cycles
 SCF Done:  E(RB3LYP) =  -875.118188754     A.U. after   15 cycles
 SCF Done:  E(RB3LYP) =  -875.125049413     A.U. after   17 cycles
 SCF Done:  E(RB3LYP) =  -875.132448369     A.U. after   17 cycles
 SCF Done:  E(RB3LYP) =  -875.137869879     A.U. after   17 cycles
 SCF Done:  E(RB3LYP) =  -875.141065186     A.U. after   17 cycles
 SCF Done:  E(RB3LYP) =  -875.141852478     A.U. after   15 cycles
 SCF Done:  E(RB3LYP) =  -875.142560215     A.U. after   16 cycles
 SCF Done:  E(RB3LYP) =  -875.148094567     A.U. after   10 cycles
 SCF Done:  E(RB3LYP) =  -875.148094881     A.U. after   10 cycles
 SCF Done:  E(RB3LYP) =  -875.148094953     A.U. after    9 cycles
 SCF Done:  E(RB3LYP) =  -875.148094924     A.U. after    9 cycles
 SCF Done:  E(RB3LYP) =  -875.148094864     A.U. after    9 cycles
 SCF Done:  E(RB3LYP) =  -875.148094816     A.U. after    8 cycles
 Optimization completed.
    -- Stationary point found.
 Normal termination of Gaussian 09 at Fri Jun 23 06:16:23 2017.

 ------------------------------------------------------------------
 #N Geom=AllCheck Guess=TCheck SCRF=Check GenChk RB3LYP/6-311G Freq
 ------------------------------------------------------------------

 Structure from the checkpoint file:  "HFSO4-h2o-A.chk"
 -------------------
 Title Card Required
 -------------------
 Charge = -1 Multiplicity = 1

 SCF Done:  E(RB3LYP) =  -875.148094816     A.U. after    1 cycles

  Exact polarizability:  59.225  -3.985  46.263  -2.681   0.755  43.138
 Approx polarizability: 106.094  -2.433  90.306 -10.618   4.137  99.836

                      1                      2                      3
                      A                      A                      A
 Frequencies --     23.0381                78.6919               121.7703
 Red. masses --     12.9707                12.7059                13.1181
 Frc consts  --      0.0041                 0.0464                 0.1146
 IR Inten    --      1.2591                 0.6325                 0.3073

                      4                      5                      6
                      A                      A                      A
 Frequencies --    125.7920               184.1627               228.9899
 Red. masses --     11.5832                 8.8251                12.5537
 Frc consts  --      0.1080                 0.1763                 0.3878
 IR Inten    --      1.9678                 4.7094                 4.1455

                      7                      8                      9
                      A                      A                      A
 Frequencies --    236.9451               308.0945               340.3852
 Red. masses --     16.4985                 1.0292                14.4202
 Frc consts  --      0.5457                 0.0576                 0.9844
 IR Inten    --      0.5032                24.9049                 6.5994

                     10                     11                     12
                      A                      A                      A
 Frequencies --    363.8782               382.6182               397.0886
 Red. masses --     11.7497                 1.4515                 3.2859
 Frc consts  --      0.9166                 0.1252                 0.3053
 IR Inten    --     27.6206                44.9075                96.9965

                     13                     14                     15
                      A                      A                      A
 Frequencies --    511.8818               627.3268               705.9594
 Red. masses --     18.0093                 1.0828                16.5722
 Frc consts  --      2.7803                 0.2511                 4.8662
 IR Inten    --    111.9352               309.2003                50.4359

                     16                     17                     18
                      A                      A                      A
 Frequencies --    845.7998               877.7790               898.4640
 Red. masses --     17.5103                20.3891                20.3716
 Frc consts  --      7.3804                 9.2559                 9.6890
 IR Inten    --     18.3442               161.6750               121.3665

                     19                     20                     21
                      A                      A                      A
 Frequencies --   1723.5791              3581.6186              3728.2898
 Red. masses --      1.0859                 1.0464                 1.0745
 Frc consts  --      1.9007                 7.9089                 8.8001
 IR Inten    --    258.8054                92.9950                15.7256

 - Thermochemistry -
 -------------------
 Temperature   298.150 Kelvin.  Pressure   1.00000 Atm.
 Atom     1 has atomic number 16 and mass  31.97207

 Molecular mass:   132.96070 amu.
 Principal axes and moments of inertia in atomic units:
                           1         2         3
     Eigenvalues --   691.567651319.939941526.71068
           X            0.99966   0.02606   0.00127
           Y           -0.02605   0.99964  -0.00588
           Z           -0.00142   0.00585   0.99998
 This molecule is an asymmetric top.
 Rotational symmetry number  1.
 Warning -- assumption of classical behavior for rotation
           may cause significant error
 Rotational temperatures (Kelvin)      0.12524     0.06562     0.05673
 Rotational constants (GHZ):           2.60964     1.36729     1.18211
 Zero-point vibrational energy      97448.7 (Joules/Mol)
                                   23.29080 (Kcal/Mol)
 Warning -- explicit consideration of  13 degrees of freedom as
           vibrations may cause significant error
 Vibrational temperatures:     33.15   113.22   175.20   180.99   264.97
          (Kelvin)            329.46   340.91   443.28   489.74   523.54
                              550.50   571.32   736.48   902.58  1015.72
                             1216.92  1262.93  1292.69  2479.84  5153.14
                             5364.17

 Zero-point correction=                           0.037116 (Hartree/Particle)
 Thermal correction to Energy=                    0.047025
 Thermal correction to Enthalpy=                  0.047969
 Thermal correction to Gibbs Free Energy=         0.000864
 Sum of electronic and zero-point Energies=           -875.110979
 Sum of electronic and thermal Energies=              -875.101070
 Sum of electronic and thermal Enthalpies=            -875.100125
 Sum of electronic and thermal Free Energies=         -875.147231

                     E (Thermal)             CV                S
                      KCal/Mol        Cal/Mol-Kelvin    Cal/Mol-Kelvin
 Total                   29.509             31.655             99.142
 Electronic               0.000              0.000              0.000
 Translational            0.889              2.981             40.567
 Rotational               0.889              2.981             28.723
 Vibrational             27.731             25.694             29.851
 Vibration     1          0.593              1.985              6.353
 Vibration     2          0.600              1.963              3.923
 Vibration     3          0.609              1.931              3.072
 Vibration     4          0.611              1.927              3.009
 Vibration     5          0.631              1.861              2.286
 Vibration     6          0.652              1.797              1.887
 Vibration     7          0.656              1.784              1.826
 Vibration     8          0.698              1.658              1.373
 Vibration     9          0.720              1.595              1.210
 Vibration    10          0.737              1.547              1.105
 Vibration    11          0.752              1.507              1.029
 Vibration    12          0.764              1.476              0.973
 Vibration    13          0.867              1.224              0.629

 Optimization completed.
    -- Stationary point found.
 Normal termination of Gaussian 09 at Fri Jun 23 06:17:06 2017.

 ---------------------------------------------
 # B3LYP/6-311+G(2df,2p) geom=check guess=read
 ---------------------------------------------

 -------------------
 Title Card Required
 -------------------
 Structure from the checkpoint file:  "HFSO4-h2o-A.chk"
 Charge = -1 Multiplicity = 1

 SCF Done:  E(RB3LYP) =  -875.462164538     A.U. after   14 cycles
 Normal termination of Gaussian 09 at Fri Jun 23 06:19:07 2017.

 --------------------------------------------------
 # B3LYP/6-311G** geom=check guess=read pop=nboread
 --------------------------------------------------

 -------------------
 Title Card Required
 -------------------
 Structure from the checkpoint file:  "HFSO4-h2o-A.chk"
 Charge = -1 Multiplicity = 1

 SCF Done:  E(RB3LYP) =  -875.369146732     A.U. after   13 cycles

 Summary of Natural Population Analysis:

                                       Natural Population
                Natural  -----------------------------------------------
    Atom  No    Charge         Core      Valence    Rydberg      Total
 -----------------------------------------------------------------------
      S    1    2.05364      9.99952     3.78101    0.16583    13.94636
      O    2   -0.81530      1.99992     6.80820    0.00718     8.81530
      O    3   -0.86258      1.99990     6.85538    0.00731     8.86258
      O    4   -0.82223      1.99992     6.81524    0.00707     8.82223
      O    5   -0.31770      1.99998     6.30655    0.01117     8.31770
      F    6   -0.21446      1.99998     7.21192    0.00255     9.21446
      O    7   -0.94916      1.99983     6.94060    0.00873     8.94916
      H    8    0.45168      0.00000     0.54164    0.00668     0.54832
      H    9    0.47611      0.00000     0.51783    0.00607     0.52389
 =======================================================================
   * Total *   -1.00000     21.99904    45.77837    0.22259    68.00000

 Normal termination of Gaussian 09 at Fri Jun 23 06:20:39 2017.
 Gaussian 09:  AM64L-G09RevD.01 24-Apr-2013

 -------------------------------------------------
 # B3LYP/6-311G** geom=check guess=read output=wfx
 -------------------------------------------------

 -------------------
 Title Card Required
 -------------------
 Structure from the checkpoint file:  "HFSO4-h2o-A.chk"
 Charge = -1 Multiplicity = 1

                         Standard orientation:
 ---------------------------------------------------------------------
 Center     Atomic      Atomic             Coordinates (Angstroms)
 Number     Number       Type             X           Y           Z
 ---------------------------------------------------------------------
      1         16           0        0.919050   -0.251346    0.067831
      2          8           0        1.515240    0.400630    1.425843
      3          8           0       -0.139599   -1.469759    0.287561
      4          8           0        1.916529   -0.376507   -1.208057
      5          8           0       -0.183934    1.205272   -0.784052
      6          9           0       -1.279319    1.577550    0.184926
      7          8           0       -2.912170   -0.875626   -0.062580
      8          1           0       -2.710584    0.075096   -0.060241
      9          1           0       -2.048873   -1.323601    0.040893
 ---------------------------------------------------------------------

 SCF Done:  E(RB3LYP) =  -875.369146732     A.U. after    1 cycles

 The electronic state is 1-A.
 Alpha  occ. eigenvalues --  -88.94461 -24.55464 -19.07558 -18.99509 -18.99481
 Alpha  occ. eigenvalues --  -18.99431 -18.93262  -8.00052  -5.96419  -5.96221
 Alpha  occ. eigenvalues --   -5.96206  -1.05924  -0.91987  -0.82914  -0.81551
 Alpha  occ. eigenvalues --   -0.81365  -0.77797  -0.49541  -0.37349  -0.35927
 Alpha  occ. eigenvalues --   -0.33445  -0.31930  -0.31165  -0.30458  -0.26901
 Alpha  occ. eigenvalues --   -0.21289  -0.19080  -0.18919  -0.17873  -0.17216
 Alpha  occ. eigenvalues --   -0.16511  -0.15259  -0.14047  -0.13425
 Alpha virt. eigenvalues --    0.04146   0.06849   0.11122   0.21473   0.22819
 Alpha virt. eigenvalues --    0.23869   0.31545   0.33295   0.36611   0.37336
 Alpha virt. eigenvalues --    0.51378   0.54027   0.60598   0.71062   0.72806

 Mulliken charges:
               1
     1  S    1.119019
     2  O   -0.521169
     3  O   -0.563596
     4  O   -0.535789
     5  O   -0.234145
     6  F   -0.209538
     7  O   -0.564239
     8  H    0.234954
     9  H    0.274504
 Sum of Mulliken charges =  -1.00000

 Dipole moment (field-independent basis, Debye):
    X=              0.3452    Y=              1.0444    Z=              0.0485  Tot=              1.1011
 Quadrupole moment (field-independent basis, Debye-Ang):
   XX=            -70.4323   YY=            -54.9095   ZZ=            -55.5116
   XY=             -5.0699   XZ=              0.0654   YZ=             -0.9368

 Normal termination of Gaussian 09 at Fri Jun 23 06:20:51 2017.
